REMARK  Name = C:\Users\adria\Documents\proteinFP\_tmp_77289f7a\ligand.pdb
REMARK  7 active torsions:
REMARK  status: ('A' for Active; 'I' for Inactive)
REMARK    1  A    between atoms: _2  and  _3
REMARK    2  A    between atoms: _2  and  _28
REMARK    3  A    between atoms: _3  and  _4
REMARK    4  A    between atoms: _4  and  _5
REMARK    5  A    between atoms: _8  and  _9
REMARK    6  A    between atoms: _9  and  _10
REMARK    7  A    between atoms: _15  and  _16
REMARK                            x       y       z     vdW  Elec       q    Type
REMARK                         _______ _______ _______ _____ _____    ______ ____
ROOT
ATOM      1  C   UNL     1      -2.165   0.521  -0.472  0.00  0.00    +0.015 C 
ATOM      2  C   UNL     1      -3.085   1.760  -0.786  0.00  0.00    +0.011 C 
ATOM      3  C   UNL     1      -2.955   2.387  -2.178  0.00  0.00    +0.001 C 
ATOM      4  C   UNL     1      -2.953   1.356  -3.297  0.00  0.00    +0.000 C 
ATOM      5  C   UNL     1      -1.966   0.224  -3.044  0.00  0.00    +0.001 C 
ATOM      6  C   UNL     1      -2.227  -0.438  -1.692  0.00  0.00    +0.011 C 
ENDROOT
BRANCH   1  10
ATOM      7  C   UNL     1       2.109   1.786  -0.623  0.00  0.00    +0.113 C 
ATOM      8  C   UNL     1       0.912   2.703  -0.912  0.00  0.00    +0.177 C 
ATOM      9  O   UNL     1      -0.268   1.961  -1.241  0.00  0.00    -0.375 OA
ATOM     10  C   UNL     1      -0.676   1.049  -0.215  0.00  0.00    +0.126 C 
ATOM     11  C   UNL     1       0.425  -0.024  -0.061  0.00  0.00    +0.033 C 
ATOM     12  C   UNL     1       1.716   0.321  -0.807  0.00  0.00    +0.022 C 
BRANCH   7  13
ATOM     13  S   UNL     1       2.749   2.101   1.072  0.00  0.00    +0.066 S 
BRANCH  13  14
ATOM     14  O   UNL     1       4.118   1.149   1.021  0.00  0.00    -0.389 OA
BRANCH  14  16
ATOM     15  O   UNL     1       5.327   2.827  -0.036  0.00  0.00    -0.247 OA
ATOM     16  C   UNL     1       5.240   1.713   0.471  0.00  0.00    +0.348 C 
BRANCH  16  17
ATOM     17  C   UNL     1       6.394   0.709   0.491  0.00  0.00    +0.227 C 
ATOM     18  O   UNL     1       6.509   0.063   1.762  0.00  0.00    -0.365 OA
ATOM     19  C   UNL     1       7.045  -1.260   1.734  0.00  0.00    +0.161 C 
ATOM     20  C   UNL     1       8.060  -1.456   0.619  0.00  0.00    +0.028 C 
ATOM     21  C   UNL     1       7.408  -1.237  -0.745  0.00  0.00    +0.005 C 
ATOM     22  C   UNL     1       6.218  -0.282  -0.660  0.00  0.00    +0.043 C 
ENDBRANCH  16  17
ENDBRANCH  14  16
ENDBRANCH  13  14
ENDBRANCH   7  13
ENDBRANCH   1  10
BRANCH   1  23
ATOM     23  C   UNL     1      -2.694  -0.144   0.884  0.00  0.00    +0.082 C 
ATOM     24  N   UNL     1      -4.172  -0.310   1.012  0.00  0.00    -0.324 N 
ATOM     25  C   UNL     1      -4.620  -0.293   2.427  0.00  0.00    +0.105 C 
ATOM     26  C   UNL     1      -3.612  -0.995   3.351  0.00  0.00    +0.019 C 
ATOM     27  C   UNL     1      -2.762  -2.031   2.618  0.00  0.00    +0.003 C 
ATOM     28  C   UNL     1      -2.008  -1.415   1.424  0.00  0.00    +0.023 C 
BRANCH  24  29
ATOM     29  C   UNL     1      -4.925  -1.100   0.189  0.00  0.00    +0.068 A 
ATOM     30  C   UNL     1      -4.660  -2.353  -0.315  0.00  0.00    +0.217 A 
ATOM     31  O   UNL     1      -5.708  -2.802  -1.056  0.00  0.00    -0.469 OA
ATOM     32  C   UNL     1      -6.654  -1.830  -1.024  0.00  0.00    +0.196 A 
ATOM     33  C   UNL     1      -6.227  -0.769  -0.262  0.00  0.00    +0.064 A 
ENDBRANCH  24  29
ENDBRANCH   1  23
TORSDOF 7
