REMARK  Name = C:\Users\adria\Documents\proteinFP\_tmp_22cae876\ligand.pdb
REMARK  3 active torsions:
REMARK  status: ('A' for Active; 'I' for Inactive)
REMARK    1  A    between atoms: _3  and  _4
REMARK    2  A    between atoms: _18  and  _19
REMARK    3  A    between atoms: _23  and  _24
REMARK                            x       y       z     vdW  Elec       q    Type
REMARK                         _______ _______ _______ _____ _____    ______ ____
ROOT
ATOM      1  C   UNL     1       0.377   1.921  -0.093  0.00  0.00    +0.024 A 
ATOM      2  C   UNL     1       0.674   0.616   0.271  0.00  0.00    +0.048 A 
ATOM      3  N   UNL     1      -0.292  -0.308   0.494  0.00  0.00    -0.236 NA
ATOM      4  C   UNL     1      -1.594   0.046   0.378  0.00  0.00    +0.126 A 
ATOM      5  N   UNL     1      -2.571  -0.944   0.596  0.00  0.00    -0.313 N 
ATOM      6  C   UNL     1      -2.927  -1.624  -0.674  0.00  0.00    +0.121 C 
ATOM      7  C   UNL     1      -2.780  -3.163  -0.596  0.00  0.00    +0.100 C 
ATOM      8  N   UNL     1      -3.458  -3.786   0.556  0.00  0.00    -0.313 NA
ATOM      9  H   UNL     1      -3.089  -4.727   0.687  0.00  0.00    +0.122 HD
ATOM     10  C   UNL     1      -3.260  -2.994   1.788  0.00  0.00    +0.100 C 
ATOM     11  C   UNL     1      -2.204  -1.870   1.685  0.00  0.00    +0.121 C 
ATOM     12  C   UNL     1      -1.976   1.347   0.017  0.00  0.00    +0.009 A 
ATOM     13  C   UNL     1      -0.956   2.286  -0.212  0.00  0.00    +0.010 A 
ENDROOT
BRANCH  12  14
ATOM     14  C   UNL     1      -3.433   1.770  -0.051  0.00  0.00    +0.087 C 
ATOM     15  N   UNL     1      -3.697   2.603  -1.246  0.00  0.00    -0.309 NA
ATOM     16  H   UNL     1      -3.450   2.055  -2.069  0.00  0.00    +0.123 HD
ATOM     17  C   UNL     1      -5.109   2.979  -1.332  0.00  0.00    +0.081 C 
ATOM     18  C   UNL     1      -5.557   3.762  -0.102  0.00  0.00    +0.015 C 
ATOM     19  C   UNL     1      -5.283   2.983   1.179  0.00  0.00    +0.003 C 
ATOM     20  C   UNL     1      -3.827   2.527   1.231  0.00  0.00    +0.023 C 
ENDBRANCH  12  14
BRANCH   2  21
ATOM     21  C   UNL     1       2.117   0.162   0.387  0.00  0.00    +0.052 C 
ATOM     22  C   UNL     1       2.509  -0.626  -0.883  0.00  0.00    +0.095 C 
ATOM     23  N   UNL     1       3.776  -1.365  -0.758  0.00  0.00    -0.287 NA
ATOM     24  C   UNL     1       3.696  -2.353   0.338  0.00  0.00    +0.086 C 
ATOM     25  C   UNL     1       2.548  -2.144   1.337  0.00  0.00    +0.016 C 
ATOM     26  C   UNL     1       2.367  -0.666   1.665  0.00  0.00    +0.012 C 
BRANCH  23  27
ATOM     27  C   UNL     1       4.959  -0.520  -0.680  0.00  0.00    +0.124 C 
ATOM     28  N   UNL     1       6.140  -1.303  -1.022  0.00  0.00    -0.301 NA
ATOM     29  H   UNL     1       6.358  -1.968  -0.289  0.00  0.00    +0.123 HD
ATOM     30  C   UNL     1       7.218  -0.337  -1.202  0.00  0.00    +0.082 C 
ATOM     31  C   UNL     1       6.550   0.854  -1.869  0.00  0.00    +0.018 C 
ATOM     32  C   UNL     1       5.056   0.593  -1.728  0.00  0.00    +0.036 C 
ENDBRANCH  23  27
ENDBRANCH   2  21
TORSDOF 3
