REMARK  Name = C:\Users\adria\Documents\proteinFP\_tmp_0a123e7a\ligand.pdb
REMARK  5 active torsions:
REMARK  status: ('A' for Active; 'I' for Inactive)
REMARK    1  A    between atoms: _2  and  _3
REMARK    2  A    between atoms: _3  and  _4
REMARK    3  A    between atoms: _6  and  _7
REMARK    4  A    between atoms: _15  and  _16
REMARK    5  A    between atoms: _25  and  _26
REMARK                            x       y       z     vdW  Elec       q    Type
REMARK                         _______ _______ _______ _____ _____    ______ ____
ROOT
ATOM      1  N   UNL     1       0.150  -1.302  -0.322  0.00  0.00    -0.131 NA
ATOM      2  C   UNL     1      -0.711  -0.118  -0.112  0.00  0.00    +0.127 C 
ATOM      3  C   UNL     1       0.019   1.141  -0.610  0.00  0.00    +0.027 C 
ATOM      4  C   UNL     1       1.379   1.307   0.065  0.00  0.00    +0.007 C 
ATOM      5  C   UNL     1       2.242   0.038  -0.088  0.00  0.00    +0.010 C 
ATOM      6  C   UNL     1       1.422  -1.179   0.400  0.00  0.00    +0.132 C 
ENDROOT
BRANCH   2   7
ATOM      7  C   UNL     1      -2.057  -0.238  -0.834  0.00  0.00    -0.017 A 
ATOM      8  C   UNL     1      -3.289   0.079  -0.209  0.00  0.00    +0.021 A 
ATOM      9  C   UNL     1      -4.513  -0.010  -0.913  0.00  0.00    +0.098 A 
ATOM     10  N   UNL     1      -5.700   0.307  -0.332  0.00  0.00    -0.251 NA
ATOM     11  C   UNL     1      -6.816   0.188  -1.080  0.00  0.00    +0.131 A 
ATOM     12  C   UNL     1      -6.775  -0.235  -2.388  0.00  0.00    +0.131 A 
ATOM     13  N   UNL     1      -5.617  -0.552  -2.999  0.00  0.00    -0.252 NA
ATOM     14  C   UNL     1      -4.492  -0.439  -2.264  0.00  0.00    +0.090 A 
ATOM     15  C   UNL     1      -3.286  -0.752  -2.865  0.00  0.00    +0.030 A 
ATOM     16  C   UNL     1      -2.082  -0.652  -2.173  0.00  0.00    +0.008 A 
BRANCH   8  17
ATOM     17  C   UNL     1      -3.320   0.525   1.192  0.00  0.00    +0.022 A 
ATOM     18  S   UNL     1      -3.491  -0.633   2.445  0.00  0.00    -0.097 S 
ATOM     19  C   UNL     1      -3.429   0.578   3.653  0.00  0.00    +0.046 A 
ATOM     20  C   UNL     1      -3.288   1.839   3.116  0.00  0.00    +0.008 A 
ATOM     21  C   UNL     1      -3.229   1.809   1.692  0.00  0.00    +0.016 A 
ENDBRANCH   8  17
ENDBRANCH   2   7
BRANCH   5  22
ATOM     22  C   UNL     1       3.601   0.152   0.671  0.00  0.00    -0.004 C 
ATOM     23  C   UNL     1       4.564  -1.021   0.368  0.00  0.00    +0.019 C 
ATOM     24  C   UNL     1       5.682  -0.624  -0.594  0.00  0.00    +0.081 C 
ATOM     25  N   UNL     1       6.514   0.467  -0.092  0.00  0.00    -0.316 NA
ATOM     26  H   UNL     1       7.311   0.094   0.424  0.00  0.00    +0.122 HD
ATOM     27  C   UNL     1       5.797   1.418   0.756  0.00  0.00    +0.081 C 
ATOM     28  C   UNL     1       4.311   1.500   0.418  0.00  0.00    +0.019 C 
ENDBRANCH   5  22
BRANCH   1  29
ATOM     29  O   UNL     1      -0.544  -2.422   0.327  0.00  0.00    -0.369 OA
BRANCH  29  31
ATOM     30  O   UNL     1      -0.330  -3.585  -1.692  0.00  0.00    -0.253 OA
ATOM     31  C   UNL     1      -0.721  -3.470  -0.540  0.00  0.00    +0.467 C 
ENDBRANCH  29  31
ENDBRANCH   1  29
TORSDOF 5
