REMARK  Name = C:\Users\adria\Documents\proteinFP\_tmp_13ea7775\ligand.pdb
REMARK  5 active torsions:
REMARK  status: ('A' for Active; 'I' for Inactive)
REMARK    1  A    between atoms: _2  and  _3
REMARK    2  A    between atoms: _5  and  _6
REMARK    3  A    between atoms: _13  and  _14
REMARK    4  A    between atoms: _13  and  _20
REMARK    5  A    between atoms: _20  and  _21
REMARK                            x       y       z     vdW  Elec       q    Type
REMARK                         _______ _______ _______ _____ _____    ______ ____
ROOT
ATOM      1  C   UNL     1      -0.855   0.336  -1.608  0.00  0.00    +0.127 C 
ATOM      2  C   UNL     1      -1.274  -0.210  -0.211  0.00  0.00    +0.162 C 
ATOM      3  C   UNL     1      -0.252  -1.248   0.370  0.00  0.00    +0.039 C 
ATOM      4  C   UNL     1       0.737  -1.785  -0.661  0.00  0.00    +0.012 C 
ATOM      5  C   UNL     1       1.498  -0.671  -1.409  0.00  0.00    +0.039 C 
ATOM      6  C   UNL     1       0.659   0.602  -1.640  0.00  0.00    +0.030 C 
ENDROOT
BRANCH   2   7
ATOM      7  C   UNL     1      -1.446   1.005   0.731  0.00  0.00    +0.089 A 
ATOM      8  N   UNL     1      -0.447   1.256   1.630  0.00  0.00    -0.255 NA
ATOM      9  C   UNL     1      -0.580   2.361   2.408  0.00  0.00    +0.131 A 
ATOM     10  C   UNL     1      -1.639   3.237   2.278  0.00  0.00    +0.130 A 
ATOM     11  N   UNL     1      -2.607   3.049   1.358  0.00  0.00    -0.260 NA
ATOM     12  C   UNL     1      -2.491   1.930   0.600  0.00  0.00    +0.136 A 
ENDBRANCH   2   7
BRANCH   5  13
ATOM     13  C   UNL     1       2.813  -0.335  -0.764  0.00  0.00    +0.039 A 
ATOM     14  N   UNL     1       2.949   0.116   0.528  0.00  0.00    -0.281 N 
ATOM     15  H   UNL     1       2.225   0.300   1.212  0.00  0.00    +0.189 HD
ATOM     16  N   UNL     1       4.225   0.342   0.883  0.00  0.00    -0.182 NA
ATOM     17  C   UNL     1       4.923   0.040  -0.214  0.00  0.00    +0.134 A 
ATOM     18  C   UNL     1       4.098  -0.390  -1.269  0.00  0.00    +0.044 A 
ENDBRANCH   5  13
BRANCH   2  19
ATOM     19  S   UNL     1      -2.947  -1.009  -0.254  0.00  0.00    +0.039 S 
ATOM     20  O   UNL     1      -3.799  -0.304  -1.178  0.00  0.00    -0.157 OA
ATOM     21  O   UNL     1      -3.388  -1.320   1.087  0.00  0.00    -0.157 OA
BRANCH  19  22
ATOM     22  N   UNL     1      -2.663  -2.497  -0.962  0.00  0.00    -0.207 NA
ATOM     23  H   UNL     1      -2.882  -3.270  -0.323  0.00  0.00    +0.144 HD
ATOM     24  H   UNL     1      -3.110  -2.574  -1.882  0.00  0.00    +0.144 HD
ENDBRANCH  19  22
ENDBRANCH   2  19
BRANCH   1  26
ATOM     25  N   UNL     1      -1.540  -1.186  -3.652  0.00  0.00    -0.196 NA
ATOM     26  C   UNL     1      -1.227  -0.527  -2.751  0.00  0.00    +0.069 C 
ENDBRANCH   1  26
TORSDOF 5
