ROOT
HETATM    1  C   LIG A   1       4.391   1.632  -0.291  1.00  0.00    -0.040 C
HETATM    2  C   LIG A   1       3.042   0.976  -0.240  1.00  0.00    -0.050 C
HETATM    3  C   LIG A   1       1.893   1.681  -0.613  1.00  0.00    -0.059 C
HETATM    4  C   LIG A   1       0.639   1.062  -0.591  1.00  0.00    -0.052 C
HETATM    5  C   LIG A   1       0.518  -0.277  -0.196  1.00  0.00     0.011 C
HETATM    6  C   LIG A   1       1.666  -0.993   0.124  1.00  0.00     0.029 C
HETATM    7  C   LIG A   1       2.924  -0.373   0.114  1.00  0.00    -0.048 C
HETATM    8  C   LIG A   1       1.558  -2.426   0.441  1.00  0.00     0.184 C
HETATM    9  O   LIG A   1       2.523  -3.024   0.911  1.00  0.00    -0.292 OA
HETATM   10  C   LIG A   1       0.274  -3.124   0.070  1.00  0.00     0.103 C
HETATM   11  N   LIG A   1      -0.900  -2.253   0.002  1.00  0.00    -0.276 NA
HETATM   12  C   LIG A   1      -0.788  -0.975  -0.110  1.00  0.00     0.073 C
HETATM   13  C   LIG A   1      -2.053  -0.195  -0.137  1.00  0.00     0.000 C
HETATM   14  C   LIG A   1      -2.292   0.808   0.809  1.00  0.00    -0.053 C
HETATM   15  C   LIG A   1      -3.492   1.519   0.772  1.00  0.00    -0.062 C
HETATM   16  C   LIG A   1      -4.452   1.220  -0.197  1.00  0.00    -0.062 C
HETATM   17  C   LIG A   1      -4.221   0.203  -1.125  1.00  0.00    -0.062 C
HETATM   18  C   LIG A   1      -3.023  -0.512  -1.092  1.00  0.00    -0.053 C
HETATM   19  H   LIG A   1       4.837   1.494  -1.280  1.00  0.00     0.028 H
HETATM   20  H   LIG A   1       4.311   2.704  -0.085  1.00  0.00     0.028 H
HETATM   21  H   LIG A   1       5.060   1.205   0.464  1.00  0.00     0.028 H
HETATM   22  H   LIG A   1       1.966   2.722  -0.925  1.00  0.00     0.063 H
HETATM   23  H   LIG A   1      -0.227   1.644  -0.897  1.00  0.00     0.063 H
HETATM   24  H   LIG A   1       3.811  -0.950   0.371  1.00  0.00     0.063 H
HETATM   25  H   LIG A   1       0.414  -3.628  -0.892  1.00  0.00     0.060 H
HETATM   26  H   LIG A   1       0.081  -3.884   0.835  1.00  0.00     0.060 H
HETATM   27  H   LIG A   1      -1.561   1.029   1.582  1.00  0.00     0.063 H
HETATM   28  H   LIG A   1      -3.685   2.299   1.504  1.00  0.00     0.062 H
HETATM   29  H   LIG A   1      -5.389   1.771  -0.220  1.00  0.00     0.062 H
HETATM   30  H   LIG A   1      -4.977  -0.039  -1.866  1.00  0.00     0.062 H
HETATM   31  H   LIG A   1      -2.850  -1.316  -1.803  1.00  0.00     0.063 H
ENDROOT
TORSDOF 0
