REMARK  Name = C:\Users\adria\Documents\proteinFP\_tmp_03b55b19\ligand.pdb
REMARK  3 active torsions:
REMARK  status: ('A' for Active; 'I' for Inactive)
REMARK    1  A    between atoms: _5  and  _6
REMARK    2  A    between atoms: _10  and  _11
REMARK    3  A    between atoms: _20  and  _21
REMARK                            x       y       z     vdW  Elec       q    Type
REMARK                         _______ _______ _______ _____ _____    ______ ____
ROOT
ATOM      1  O   UNL     1      -1.971   5.531  -1.486  0.00  0.00    -0.290 OA
ATOM      2  C   UNL     1      -1.310   4.535  -1.200  0.00  0.00    +0.185 C 
ATOM      3  C   UNL     1      -1.986   3.253  -0.955  0.00  0.00    +0.028 A 
ATOM      4  C   UNL     1      -3.339   3.102  -1.281  0.00  0.00    +0.012 A 
ATOM      5  C   UNL     1      -3.966   1.869  -1.101  0.00  0.00    +0.004 A 
ATOM      6  C   UNL     1      -3.250   0.771  -0.606  0.00  0.00    -0.042 A 
ATOM      7  C   UNL     1      -1.894   0.945  -0.272  0.00  0.00    +0.014 A 
ATOM      8  C   UNL     1      -1.266   2.190  -0.425  0.00  0.00    +0.011 A 
ATOM      9  C   UNL     1       0.148   2.428  -0.041  0.00  0.00    +0.074 C 
ATOM     10  N   UNL     1       0.807   3.478  -0.385  0.00  0.00    -0.275 NA
ATOM     11  C   UNL     1       0.198   4.543  -1.183  0.00  0.00    +0.221 C 
ENDROOT
BRANCH   6  12
ATOM     12  C   UNL     1      -3.947  -0.568  -0.428  0.00  0.00    +0.033 C 
ATOM     13  C   UNL     1      -4.117  -0.940   1.066  0.00  0.00    +0.089 C 
ATOM     14  N   UNL     1      -4.363  -2.366   1.318  0.00  0.00    -0.315 NA
ATOM     15  H   UNL     1      -4.948  -2.473   2.146  0.00  0.00    +0.122 HD
ATOM     16  C   UNL     1      -4.969  -3.039   0.177  0.00  0.00    +0.081 C 
ATOM     17  C   UNL     1      -4.026  -3.025  -1.029  0.00  0.00    +0.016 C 
ATOM     18  C   UNL     1      -3.254  -1.709  -1.186  0.00  0.00    +0.010 C 
ENDBRANCH   6  12
BRANCH   9  19
ATOM     19  C   UNL     1       0.868   1.431   0.792  0.00  0.00    +0.002 A 
ATOM     20  C   UNL     1       2.051   0.864   0.296  0.00  0.00    +0.033 A 
ATOM     21  C   UNL     1       2.772  -0.091   1.029  0.00  0.00    +0.030 A 
ATOM     22  C   UNL     1       2.253  -0.432   2.291  0.00  0.00    +0.023 A 
ATOM     23  C   UNL     1       1.086   0.150   2.805  0.00  0.00    +0.002 A 
ATOM     24  C   UNL     1       0.391   1.091   2.057  0.00  0.00    +0.010 A 
BRANCH  21  25
ATOM     25  N   UNL     1       3.935  -0.664   0.542  0.00  0.00    -0.327 N 
ATOM     26  C   UNL     1       4.693  -0.059  -0.567  0.00  0.00    +0.120 C 
ATOM     27  C   UNL     1       6.181  -0.472  -0.503  0.00  0.00    +0.100 C 
ATOM     28  N   UNL     1       6.440  -1.925  -0.531  0.00  0.00    -0.313 NA
ATOM     29  H   UNL     1       7.258  -2.113   0.048  0.00  0.00    +0.122 HD
ATOM     30  C   UNL     1       5.286  -2.682  -0.015  0.00  0.00    +0.100 C 
ATOM     31  C   UNL     1       4.428  -1.955   1.046  0.00  0.00    +0.120 C 
ENDBRANCH  21  25
ENDBRANCH   9  19
TORSDOF 3
