ROOT
HETATM    1  C   LIG A   1       2.760   0.242   2.163  1.00  0.00    -0.039 C
HETATM    2  C   LIG A   1       3.426  -0.405   0.978  1.00  0.00    -0.043 C
HETATM    3  C   LIG A   1       4.667  -1.040   1.154  1.00  0.00    -0.059 C
HETATM    4  C   LIG A   1       5.316  -1.652   0.082  1.00  0.00    -0.062 C
HETATM    5  C   LIG A   1       4.733  -1.641  -1.180  1.00  0.00    -0.062 C
HETATM    6  C   LIG A   1       3.499  -1.019  -1.369  1.00  0.00    -0.054 C
HETATM    7  C   LIG A   1       2.827  -0.396  -0.301  1.00  0.00    -0.015 C
HETATM    8  C   LIG A   1       1.526   0.239  -0.553  1.00  0.00    -0.018 C
HETATM    9  C   LIG A   1       1.452   1.538  -1.072  1.00  0.00    -0.054 C
HETATM   10  C   LIG A   1       0.216   2.140  -1.313  1.00  0.00    -0.058 C
HETATM   11  C   LIG A   1      -0.971   1.455  -1.032  1.00  0.00    -0.042 C
HETATM   12  C   LIG A   1      -0.921   0.144  -0.527  1.00  0.00    -0.027 C
HETATM   13  C   LIG A   1       0.331  -0.449  -0.291  1.00  0.00    -0.049 C
HETATM   14  C   LIG A   1      -2.188  -0.628  -0.225  1.00  0.00     0.035 C
HETATM   15  C   LIG A   1      -2.398  -0.873   1.274  1.00  0.00    -0.032 C
HETATM   16  C   LIG A   1      -3.907  -0.874   1.477  1.00  0.00    -0.039 C
HETATM   17  C   LIG A   1      -4.497  -0.650   0.094  1.00  0.00    -0.001 C
HETATM   18  N   LIG A   1      -3.446  -0.004  -0.700  1.00  0.00    -0.296 NA
HETATM   19  C   LIG A   1      -3.430   1.453  -0.502  1.00  0.00     0.003 C
HETATM   20  C   LIG A   1      -2.305   2.094  -1.321  1.00  0.00    -0.015 C
HETATM   21  H   LIG A   1       3.407   0.221   3.046  1.00  0.00     0.028 H
HETATM   22  H   LIG A   1       1.836  -0.288   2.416  1.00  0.00     0.028 H
HETATM   23  H   LIG A   1       2.535   1.293   1.952  1.00  0.00     0.028 H
HETATM   24  H   LIG A   1       5.140  -1.060   2.134  1.00  0.00     0.063 H
HETATM   25  H   LIG A   1       6.276  -2.138   0.233  1.00  0.00     0.062 H
HETATM   26  H   LIG A   1       5.235  -2.117  -2.018  1.00  0.00     0.062 H
HETATM   27  H   LIG A   1       3.051  -1.021  -2.362  1.00  0.00     0.063 H
HETATM   28  H   LIG A   1       2.365   2.088  -1.291  1.00  0.00     0.063 H
HETATM   29  H   LIG A   1       0.186   3.147  -1.724  1.00  0.00     0.063 H
HETATM   30  H   LIG A   1       0.380  -1.464   0.100  1.00  0.00     0.063 H
HETATM   31  H   LIG A   1      -2.110  -1.598  -0.737  1.00  0.00     0.052 H
HETATM   32  H   LIG A   1      -1.958  -1.828   1.582  1.00  0.00     0.029 H
HETATM   33  H   LIG A   1      -1.945  -0.088   1.892  1.00  0.00     0.029 H
HETATM   34  H   LIG A   1      -4.256  -1.814   1.915  1.00  0.00     0.028 H
HETATM   35  H   LIG A   1      -4.191  -0.062   2.156  1.00  0.00     0.028 H
HETATM   36  H   LIG A   1      -4.732  -1.619  -0.364  1.00  0.00     0.043 H
HETATM   37  H   LIG A   1      -5.433  -0.081   0.124  1.00  0.00     0.043 H
HETATM   38  H   LIG A   1      -3.313   1.720   0.557  1.00  0.00     0.043 H
HETATM   39  H   LIG A   1      -4.384   1.880  -0.837  1.00  0.00     0.043 H
HETATM   40  H   LIG A   1      -2.265   3.164  -1.087  1.00  0.00     0.033 H
HETATM   41  H   LIG A   1      -2.515   1.992  -2.393  1.00  0.00     0.033 H
ENDROOT
TORSDOF 0
