REMARK  Name = C:\Users\adria\Documents\proteinFP\_tmp_f202cfc6\ligand.pdb
REMARK  3 active torsions:
REMARK  status: ('A' for Active; 'I' for Inactive)
REMARK    1  A    between atoms: _2  and  _3
REMARK    2  A    between atoms: _12  and  _13
REMARK    3  A    between atoms: _19  and  _20
REMARK                            x       y       z     vdW  Elec       q    Type
REMARK                         _______ _______ _______ _____ _____    ______ ____
ROOT
ATOM      1  C   UNL     1       2.095   1.629  -0.824  0.00  0.00    +0.054 A 
ATOM      2  C   UNL     1       0.806   1.085  -0.624  0.00  0.00    +0.108 A 
ATOM      3  N   UNL     1      -0.416   1.661  -0.689  0.00  0.00    -0.246 NA
ATOM      4  C   UNL     1      -1.451   0.811  -0.426  0.00  0.00    +0.068 A 
ATOM      5  C   UNL     1      -1.255  -0.559  -0.130  0.00  0.00    +0.082 A 
ATOM      6  N   UNL     1      -0.012  -1.137  -0.055  0.00  0.00    -0.229 NA
ATOM      7  C   UNL     1       0.967  -0.254  -0.315  0.00  0.00    +0.157 A 
ATOM      8  N   UNL     1       2.306  -0.526  -0.316  0.00  0.00    -0.340 N 
ATOM      9  H   UNL     1       2.690  -1.436  -0.109  0.00  0.00    +0.167 HD
ATOM     10  C   UNL     1       3.022   0.613  -0.630  0.00  0.00    +0.038 A 
ENDROOT
BRANCH  10  11
ATOM     11  C   UNL     1       4.519   0.648  -0.704  0.00  0.00    +0.115 C 
ATOM     12  N   UNL     1       5.096   0.593   0.650  0.00  0.00    -0.306 NA
ATOM     13  H   UNL     1       4.420   0.922   1.337  0.00  0.00    +0.123 HD
ATOM     14  C   UNL     1       5.602  -0.738   0.986  0.00  0.00    +0.096 C 
ATOM     15  C   UNL     1       6.626  -1.287  -0.039  0.00  0.00    +0.096 C 
ATOM     16  N   UNL     1       6.515  -0.735  -1.406  0.00  0.00    -0.313 NA
ATOM     17  H   UNL     1       7.015   0.158  -1.395  0.00  0.00    +0.122 HD
ATOM     18  C   UNL     1       5.102  -0.414  -1.691  0.00  0.00    +0.105 C 
ENDBRANCH  10  11
BRANCH   4  19
ATOM     19  C   UNL     1      -2.821   1.463  -0.489  0.00  0.00    +0.042 C 
ATOM     20  C   UNL     1      -2.957   2.606   0.543  0.00  0.00    +0.025 C 
ATOM     21  C   UNL     1      -3.824   3.759   0.033  0.00  0.00    +0.081 C 
ATOM     22  N   UNL     1      -4.954   3.247  -0.732  0.00  0.00    -0.316 NA
ATOM     23  H   UNL     1      -5.601   4.004  -0.955  0.00  0.00    +0.122 HD
ATOM     24  C   UNL     1      -4.528   2.587  -1.970  0.00  0.00    +0.081 C 
ATOM     25  C   UNL     1      -3.126   1.974  -1.904  0.00  0.00    +0.025 C 
ENDBRANCH   4  19
BRANCH   5  26
ATOM     26  C   UNL     1      -2.420  -1.520   0.150  0.00  0.00    +0.105 C 
ATOM     27  N   UNL     1      -2.068  -2.919  -0.217  0.00  0.00    -0.308 NA
ATOM     28  H   UNL     1      -1.060  -2.905  -0.415  0.00  0.00    +0.123 HD
ATOM     29  C   UNL     1      -2.302  -3.886   0.853  0.00  0.00    +0.081 C 
ATOM     30  C   UNL     1      -1.609  -3.474   2.149  0.00  0.00    +0.015 C 
ATOM     31  C   UNL     1      -2.011  -2.073   2.608  0.00  0.00    +0.003 C 
ATOM     32  C   UNL     1      -2.918  -1.369   1.600  0.00  0.00    +0.025 C 
ENDBRANCH   5  26
TORSDOF 3
