ROOT
HETATM    1  O   LIG A   1      -2.715  -3.208  -0.125  1.00  0.00    -0.265 OA
HETATM    2  C   LIG A   1      -2.293  -2.074  -0.149  1.00  0.00     0.296 C
HETATM    3  N   LIG A   1      -0.995  -1.636  -0.015  1.00  0.00    -0.318 NA
HETATM    4  C   LIG A   1      -0.905  -0.243  -0.098  1.00  0.00     0.064 C
HETATM    5  C   LIG A   1      -2.169   0.317  -0.295  1.00  0.00     0.052 C
HETATM    6  C   LIG A   1      -2.380   1.674  -0.414  1.00  0.00    -0.049 C
HETATM    7  C   LIG A   1      -1.257   2.494  -0.328  1.00  0.00    -0.061 C
HETATM    8  C   LIG A   1       0.028   1.940  -0.128  1.00  0.00    -0.049 C
HETATM    9  C   LIG A   1       0.234   0.550  -0.008  1.00  0.00     0.042 C
HETATM   10  C   LIG A   1       1.579   0.014   0.198  1.00  0.00     0.135 C
HETATM   11  C   LIG A   1       2.836   0.578   0.319  1.00  0.00    -0.016 C
HETATM   12  C   LIG A   1       3.750  -0.488   0.506  1.00  0.00    -0.023 C
HETATM   13  C   LIG A   1       3.001  -1.639   0.490  1.00  0.00     0.091 C
HETATM   14  O   LIG A   1       1.689  -1.347   0.305  1.00  0.00    -0.464 OA
HETATM   15  C   LIG A   1      -3.135  -0.784  -0.342  1.00  0.00     0.252 C
HETATM   16  O   LIG A   1      -4.330  -0.699  -0.499  1.00  0.00    -0.283 OA
HETATM   17  H   LIG A   1      -0.198  -2.244   0.127  1.00  0.00     0.170 H
HETATM   18  H   LIG A   1      -3.375   2.079  -0.567  1.00  0.00     0.063 H
HETATM   19  H   LIG A   1      -1.368   3.573  -0.415  1.00  0.00     0.062 H
HETATM   20  H   LIG A   1       0.870   2.628  -0.069  1.00  0.00     0.063 H
HETATM   21  H   LIG A   1       3.074   1.631   0.277  1.00  0.00     0.066 H
HETATM   22  H   LIG A   1       4.821  -0.425   0.637  1.00  0.00     0.066 H
HETATM   23  H   LIG A   1       3.239  -2.689   0.591  1.00  0.00     0.104 H
ENDROOT
TORSDOF 0
