REMARK  Name = C:\Users\adria\Documents\proteinFP\data\structures\O15151.pdb
REMARK                            x       y       z     vdW  Elec       q    Type
REMARK                         _______ _______ _______ _____ _____    ______ ____
ATOM      1  C   UNL     1      -1.636   9.848   1.500  0.00  0.00     0.000 C 
TER 
REMARK  Name = C:\Users\adria\Documents\proteinFP\data\structures\O15151.pdb
REMARK                            x       y       z     vdW  Elec       q    Type
REMARK                         _______ _______ _______ _____ _____    ______ ____
ATOM      1  C   UNL     1      -9.197  -3.420   3.000  0.00  0.00     0.000 C 
TER 
REMARK  Name = C:\Users\adria\Documents\proteinFP\data\structures\O15151.pdb
REMARK                            x       y       z     vdW  Elec       q    Type
REMARK                         _______ _______ _______ _____ _____    ______ ____
ATOM      1  C   UNL     1       5.300  -8.660   4.500  0.00  0.00     0.000 C 
TER 
REMARK  Name = C:\Users\adria\Documents\proteinFP\data\structures\O15151.pdb
REMARK                            x       y       z     vdW  Elec       q    Type
REMARK                         _______ _______ _______ _____ _____    ______ ____
ATOM      1  C   UNL     1       8.060   6.428   6.000  0.00  0.00     0.000 C 
TER 
REMARK  Name = C:\Users\adria\Documents\proteinFP\data\structures\O15151.pdb
REMARK                            x       y       z     vdW  Elec       q    Type
REMARK                         _______ _______ _______ _____ _____    ______ ____
ATOM      1  C   UNL     1      -7.160   6.428   7.500  0.00  0.00     0.000 C 
TER 
REMARK  Name = C:\Users\adria\Documents\proteinFP\data\structures\O15151.pdb
REMARK                            x       y       z     vdW  Elec       q    Type
REMARK                         _______ _______ _______ _____ _____    ______ ____
ATOM      1  C   UNL     1      -4.400  -8.660   9.000  0.00  0.00     0.000 C 
TER 
REMARK  Name = C:\Users\adria\Documents\proteinFP\data\structures\O15151.pdb
REMARK                            x       y       z     vdW  Elec       q    Type
REMARK                         _______ _______ _______ _____ _____    ______ ____
ATOM      1  C   UNL     1      10.097  -3.420  10.500  0.00  0.00     0.000 C 
TER 
REMARK  Name = C:\Users\adria\Documents\proteinFP\data\structures\O15151.pdb
REMARK                            x       y       z     vdW  Elec       q    Type
REMARK                         _______ _______ _______ _____ _____    ______ ____
ATOM      1  C   UNL     1       2.536   9.848  12.000  0.00  0.00     0.000 C 
TER 
REMARK  Name = C:\Users\adria\Documents\proteinFP\data\structures\O15151.pdb
REMARK                            x       y       z     vdW  Elec       q    Type
REMARK                         _______ _______ _______ _____ _____    ______ ____
ATOM      1  C   UNL     1      -9.100   0.000  13.500  0.00  0.00     0.000 C 
TER 
REMARK  Name = C:\Users\adria\Documents\proteinFP\data\structures\O15151.pdb
REMARK                            x       y       z     vdW  Elec       q    Type
REMARK                         _______ _______ _______ _____ _____    ______ ____
ATOM      1  C   UNL     1       2.736  -9.848  15.000  0.00  0.00     0.000 C 
TER 
REMARK  Name = C:\Users\adria\Documents\proteinFP\data\structures\O15151.pdb
REMARK                            x       y       z     vdW  Elec       q    Type
REMARK                         _______ _______ _______ _____ _____    ______ ____
ATOM      1  C   UNL     1      10.497   3.420  16.500  0.00  0.00     0.000 C 
TER 
REMARK  Name = C:\Users\adria\Documents\proteinFP\data\structures\O15151.pdb
REMARK                            x       y       z     vdW  Elec       q    Type
REMARK                         _______ _______ _______ _____ _____    ______ ____
ATOM      1  C   UNL     1      -3.800   8.660  18.000  0.00  0.00     0.000 C 
TER 
REMARK  Name = C:\Users\adria\Documents\proteinFP\data\structures\O15151.pdb
REMARK                            x       y       z     vdW  Elec       q    Type
REMARK                         _______ _______ _______ _____ _____    ______ ____
ATOM      1  C   UNL     1      -6.360  -6.428  19.500  0.00  0.00     0.000 C 
TER 
REMARK  Name = C:\Users\adria\Documents\proteinFP\data\structures\O15151.pdb
REMARK                            x       y       z     vdW  Elec       q    Type
REMARK                         _______ _______ _______ _____ _____    ______ ____
ATOM      1  C   UNL     1       9.060  -6.428  21.000  0.00  0.00     0.000 C 
TER 
REMARK  Name = C:\Users\adria\Documents\proteinFP\data\structures\O15151.pdb
REMARK                            x       y       z     vdW  Elec       q    Type
REMARK                         _______ _______ _______ _____ _____    ______ ____
ATOM      1  C   UNL     1       6.500   8.660  22.500  0.00  0.00     0.000 C 
TER 
REMARK  Name = C:\Users\adria\Documents\proteinFP\data\structures\O15151.pdb
REMARK                            x       y       z     vdW  Elec       q    Type
REMARK                         _______ _______ _______ _____ _____    ______ ____
ATOM      1  C   UNL     1      -7.797   3.420  24.000  0.00  0.00     0.000 C 
TER 
REMARK  Name = C:\Users\adria\Documents\proteinFP\data\structures\O15151.pdb
REMARK                            x       y       z     vdW  Elec       q    Type
REMARK                         _______ _______ _______ _____ _____    ______ ____
ATOM      1  C   UNL     1      -0.036  -9.848  25.500  0.00  0.00     0.000 C 
TER 
REMARK  Name = C:\Users\adria\Documents\proteinFP\data\structures\O15151.pdb
REMARK                            x       y       z     vdW  Elec       q    Type
REMARK                         _______ _______ _______ _____ _____    ______ ____
ATOM      1  C   UNL     1      11.800   0.000  27.000  0.00  0.00     0.000 C 
TER 
REMARK  Name = C:\Users\adria\Documents\proteinFP\data\structures\O15151.pdb
REMARK                            x       y       z     vdW  Elec       q    Type
REMARK                         _______ _______ _______ _____ _____    ______ ____
ATOM      1  C   UNL     1       0.164   9.848  28.500  0.00  0.00     0.000 C 
TER 
REMARK  Name = C:\Users\adria\Documents\proteinFP\data\structures\O15151.pdb
REMARK                            x       y       z     vdW  Elec       q    Type
REMARK                         _______ _______ _______ _____ _____    ______ ____
ATOM      1  C   UNL     1      -7.397  -3.420  30.000  0.00  0.00     0.000 C 
TER 
REMARK  Name = C:\Users\adria\Documents\proteinFP\data\structures\O15151.pdb
REMARK                            x       y       z     vdW  Elec       q    Type
REMARK                         _______ _______ _______ _____ _____    ______ ____
ATOM      1  C   UNL     1       7.100  -8.660  31.500  0.00  0.00     0.000 C 
TER 
REMARK  Name = C:\Users\adria\Documents\proteinFP\data\structures\O15151.pdb
REMARK                            x       y       z     vdW  Elec       q    Type
REMARK                         _______ _______ _______ _____ _____    ______ ____
ATOM      1  C   UNL     1       9.860   6.428  33.000  0.00  0.00     0.000 C 
TER 
REMARK  Name = C:\Users\adria\Documents\proteinFP\data\structures\O15151.pdb
REMARK                            x       y       z     vdW  Elec       q    Type
REMARK                         _______ _______ _______ _____ _____    ______ ____
ATOM      1  C   UNL     1      -5.360   6.428  34.500  0.00  0.00     0.000 C 
TER 
REMARK  Name = C:\Users\adria\Documents\proteinFP\data\structures\O15151.pdb
REMARK                            x       y       z     vdW  Elec       q    Type
REMARK                         _______ _______ _______ _____ _____    ______ ____
ATOM      1  C   UNL     1      -2.600  -8.660  36.000  0.00  0.00     0.000 C 
TER 
REMARK  Name = C:\Users\adria\Documents\proteinFP\data\structures\O15151.pdb
REMARK                            x       y       z     vdW  Elec       q    Type
REMARK                         _______ _______ _______ _____ _____    ______ ____
ATOM      1  C   UNL     1      11.897  -3.420  37.500  0.00  0.00     0.000 C 
TER 
REMARK  Name = C:\Users\adria\Documents\proteinFP\data\structures\O15151.pdb
REMARK                            x       y       z     vdW  Elec       q    Type
REMARK                         _______ _______ _______ _____ _____    ______ ____
ATOM      1  C   UNL     1       4.336   9.848  39.000  0.00  0.00     0.000 C 
TER 
REMARK  Name = C:\Users\adria\Documents\proteinFP\data\structures\O15151.pdb
REMARK                            x       y       z     vdW  Elec       q    Type
REMARK                         _______ _______ _______ _____ _____    ______ ____
ATOM      1  C   UNL     1      -7.300   0.000  40.500  0.00  0.00     0.000 C 
TER 
REMARK  Name = C:\Users\adria\Documents\proteinFP\data\structures\O15151.pdb
REMARK                            x       y       z     vdW  Elec       q    Type
REMARK                         _______ _______ _______ _____ _____    ______ ____
ATOM      1  C   UNL     1       4.536  -9.848  42.000  0.00  0.00     0.000 C 
TER 
REMARK  Name = C:\Users\adria\Documents\proteinFP\data\structures\O15151.pdb
REMARK                            x       y       z     vdW  Elec       q    Type
REMARK                         _______ _______ _______ _____ _____    ______ ____
ATOM      1  C   UNL     1      12.297   3.420  43.500  0.00  0.00     0.000 C 
TER 
REMARK  Name = C:\Users\adria\Documents\proteinFP\data\structures\O15151.pdb
REMARK                            x       y       z     vdW  Elec       q    Type
REMARK                         _______ _______ _______ _____ _____    ______ ____
ATOM      1  C   UNL     1      -2.000   8.660  45.000  0.00  0.00     0.000 C 
TER 
REMARK  Name = C:\Users\adria\Documents\proteinFP\data\structures\O15151.pdb
REMARK                            x       y       z     vdW  Elec       q    Type
REMARK                         _______ _______ _______ _____ _____    ______ ____
ATOM      1  C   UNL     1      -4.560  -6.428  46.500  0.00  0.00     0.000 C 
TER 
REMARK  Name = C:\Users\adria\Documents\proteinFP\data\structures\O15151.pdb
REMARK                            x       y       z     vdW  Elec       q    Type
REMARK                         _______ _______ _______ _____ _____    ______ ____
ATOM      1  C   UNL     1      10.860  -6.428  48.000  0.00  0.00     0.000 C 
TER 
REMARK  Name = C:\Users\adria\Documents\proteinFP\data\structures\O15151.pdb
REMARK                            x       y       z     vdW  Elec       q    Type
REMARK                         _______ _______ _______ _____ _____    ______ ____
ATOM      1  C   UNL     1       8.300   8.660  49.500  0.00  0.00     0.000 C 
TER 
REMARK  Name = C:\Users\adria\Documents\proteinFP\data\structures\O15151.pdb
REMARK                            x       y       z     vdW  Elec       q    Type
REMARK                         _______ _______ _______ _____ _____    ______ ____
ATOM      1  C   UNL     1      -5.997   3.420  51.000  0.00  0.00     0.000 C 
TER 
REMARK  Name = C:\Users\adria\Documents\proteinFP\data\structures\O15151.pdb
REMARK                            x       y       z     vdW  Elec       q    Type
REMARK                         _______ _______ _______ _____ _____    ______ ____
ATOM      1  C   UNL     1       1.764  -9.848  52.500  0.00  0.00     0.000 C 
TER 
REMARK  Name = C:\Users\adria\Documents\proteinFP\data\structures\O15151.pdb
REMARK                            x       y       z     vdW  Elec       q    Type
REMARK                         _______ _______ _______ _____ _____    ______ ____
ATOM      1  C   UNL     1      13.600   0.000  54.000  0.00  0.00     0.000 C 
TER 
REMARK  Name = C:\Users\adria\Documents\proteinFP\data\structures\O15151.pdb
REMARK                            x       y       z     vdW  Elec       q    Type
REMARK                         _______ _______ _______ _____ _____    ______ ____
ATOM      1  C   UNL     1       1.964   9.848  55.500  0.00  0.00     0.000 C 
TER 
REMARK  Name = C:\Users\adria\Documents\proteinFP\data\structures\O15151.pdb
REMARK                            x       y       z     vdW  Elec       q    Type
REMARK                         _______ _______ _______ _____ _____    ______ ____
ATOM      1  C   UNL     1      -5.597  -3.420  57.000  0.00  0.00     0.000 C 
TER 
REMARK  Name = C:\Users\adria\Documents\proteinFP\data\structures\O15151.pdb
REMARK                            x       y       z     vdW  Elec       q    Type
REMARK                         _______ _______ _______ _____ _____    ______ ____
ATOM      1  C   UNL     1       8.900  -8.660  58.500  0.00  0.00     0.000 C 
TER 
REMARK  Name = C:\Users\adria\Documents\proteinFP\data\structures\O15151.pdb
REMARK                            x       y       z     vdW  Elec       q    Type
REMARK                         _______ _______ _______ _____ _____    ______ ____
ATOM      1  C   UNL     1      11.660   6.428  60.000  0.00  0.00     0.000 C 
TER 
REMARK  Name = C:\Users\adria\Documents\proteinFP\data\structures\O15151.pdb
REMARK                            x       y       z     vdW  Elec       q    Type
REMARK                         _______ _______ _______ _____ _____    ______ ____
ATOM      1  C   UNL     1      -3.560   6.428  61.500  0.00  0.00     0.000 C 
TER 
REMARK  Name = C:\Users\adria\Documents\proteinFP\data\structures\O15151.pdb
REMARK                            x       y       z     vdW  Elec       q    Type
REMARK                         _______ _______ _______ _____ _____    ______ ____
ATOM      1  C   UNL     1      -0.800  -8.660  63.000  0.00  0.00     0.000 C 
TER 
REMARK  Name = C:\Users\adria\Documents\proteinFP\data\structures\O15151.pdb
REMARK                            x       y       z     vdW  Elec       q    Type
REMARK                         _______ _______ _______ _____ _____    ______ ____
ATOM      1  C   UNL     1      13.697  -3.420  64.500  0.00  0.00     0.000 C 
TER 
REMARK  Name = C:\Users\adria\Documents\proteinFP\data\structures\O15151.pdb
REMARK                            x       y       z     vdW  Elec       q    Type
REMARK                         _______ _______ _______ _____ _____    ______ ____
ATOM      1  C   UNL     1       6.136   9.848  66.000  0.00  0.00     0.000 C 
TER 
REMARK  Name = C:\Users\adria\Documents\proteinFP\data\structures\O15151.pdb
REMARK                            x       y       z     vdW  Elec       q    Type
REMARK                         _______ _______ _______ _____ _____    ______ ____
ATOM      1  C   UNL     1      -5.500   0.000  67.500  0.00  0.00     0.000 C 
TER 
REMARK  Name = C:\Users\adria\Documents\proteinFP\data\structures\O15151.pdb
REMARK                            x       y       z     vdW  Elec       q    Type
REMARK                         _______ _______ _______ _____ _____    ______ ____
ATOM      1  C   UNL     1       6.336  -9.848  69.000  0.00  0.00     0.000 C 
TER 
REMARK  Name = C:\Users\adria\Documents\proteinFP\data\structures\O15151.pdb
REMARK                            x       y       z     vdW  Elec       q    Type
REMARK                         _______ _______ _______ _____ _____    ______ ____
ATOM      1  C   UNL     1      14.097   3.420  70.500  0.00  0.00     0.000 C 
TER 
REMARK  Name = C:\Users\adria\Documents\proteinFP\data\structures\O15151.pdb
REMARK                            x       y       z     vdW  Elec       q    Type
REMARK                         _______ _______ _______ _____ _____    ______ ____
ATOM      1  C   UNL     1      -0.200   8.660  72.000  0.00  0.00     0.000 C 
TER 
REMARK  Name = C:\Users\adria\Documents\proteinFP\data\structures\O15151.pdb
REMARK                            x       y       z     vdW  Elec       q    Type
REMARK                         _______ _______ _______ _____ _____    ______ ____
ATOM      1  C   UNL     1      -2.760  -6.428  73.500  0.00  0.00     0.000 C 
TER 
REMARK  Name = C:\Users\adria\Documents\proteinFP\data\structures\O15151.pdb
REMARK                            x       y       z     vdW  Elec       q    Type
REMARK                         _______ _______ _______ _____ _____    ______ ____
ATOM      1  C   UNL     1      12.660  -6.428  75.000  0.00  0.00     0.000 C 
TER 
REMARK  Name = C:\Users\adria\Documents\proteinFP\data\structures\O15151.pdb
REMARK                            x       y       z     vdW  Elec       q    Type
REMARK                         _______ _______ _______ _____ _____    ______ ____
ATOM      1  C   UNL     1      10.100   8.660  76.500  0.00  0.00     0.000 C 
TER 
REMARK  Name = C:\Users\adria\Documents\proteinFP\data\structures\O15151.pdb
REMARK                            x       y       z     vdW  Elec       q    Type
REMARK                         _______ _______ _______ _____ _____    ______ ____
ATOM      1  C   UNL     1      -4.197   3.420  78.000  0.00  0.00     0.000 C 
TER 
REMARK  Name = C:\Users\adria\Documents\proteinFP\data\structures\O15151.pdb
REMARK                            x       y       z     vdW  Elec       q    Type
REMARK                         _______ _______ _______ _____ _____    ______ ____
ATOM      1  C   UNL     1       3.564  -9.848  79.500  0.00  0.00     0.000 C 
TER 
REMARK  Name = C:\Users\adria\Documents\proteinFP\data\structures\O15151.pdb
REMARK                            x       y       z     vdW  Elec       q    Type
REMARK                         _______ _______ _______ _____ _____    ______ ____
ATOM      1  C   UNL     1      15.400   0.000  81.000  0.00  0.00     0.000 C 
TER 
REMARK  Name = C:\Users\adria\Documents\proteinFP\data\structures\O15151.pdb
REMARK                            x       y       z     vdW  Elec       q    Type
REMARK                         _______ _______ _______ _____ _____    ______ ____
ATOM      1  C   UNL     1       3.764   9.848  82.500  0.00  0.00     0.000 C 
TER 
REMARK  Name = C:\Users\adria\Documents\proteinFP\data\structures\O15151.pdb
REMARK                            x       y       z     vdW  Elec       q    Type
REMARK                         _______ _______ _______ _____ _____    ______ ____
ATOM      1  C   UNL     1      -3.797  -3.420  84.000  0.00  0.00     0.000 C 
TER 
REMARK  Name = C:\Users\adria\Documents\proteinFP\data\structures\O15151.pdb
REMARK                            x       y       z     vdW  Elec       q    Type
REMARK                         _______ _______ _______ _____ _____    ______ ____
ATOM      1  C   UNL     1      10.700  -8.660  85.500  0.00  0.00     0.000 C 
TER 
REMARK  Name = C:\Users\adria\Documents\proteinFP\data\structures\O15151.pdb
REMARK                            x       y       z     vdW  Elec       q    Type
REMARK                         _______ _______ _______ _____ _____    ______ ____
ATOM      1  C   UNL     1      13.460   6.428  87.000  0.00  0.00     0.000 C 
TER 
REMARK  Name = C:\Users\adria\Documents\proteinFP\data\structures\O15151.pdb
REMARK                            x       y       z     vdW  Elec       q    Type
REMARK                         _______ _______ _______ _____ _____    ______ ____
ATOM      1  C   UNL     1      -1.760   6.428  88.500  0.00  0.00     0.000 C 
TER 
REMARK  Name = C:\Users\adria\Documents\proteinFP\data\structures\O15151.pdb
REMARK                            x       y       z     vdW  Elec       q    Type
REMARK                         _______ _______ _______ _____ _____    ______ ____
ATOM      1  C   UNL     1       1.000  -8.660  90.000  0.00  0.00     0.000 C 
TER 
REMARK  Name = C:\Users\adria\Documents\proteinFP\data\structures\O15151.pdb
REMARK                            x       y       z     vdW  Elec       q    Type
REMARK                         _______ _______ _______ _____ _____    ______ ____
ATOM      1  C   UNL     1      15.497  -3.420  91.500  0.00  0.00     0.000 C 
TER 
REMARK  Name = C:\Users\adria\Documents\proteinFP\data\structures\O15151.pdb
REMARK                            x       y       z     vdW  Elec       q    Type
REMARK                         _______ _______ _______ _____ _____    ______ ____
ATOM      1  C   UNL     1       7.936   9.848  93.000  0.00  0.00     0.000 C 
TER 
REMARK  Name = C:\Users\adria\Documents\proteinFP\data\structures\O15151.pdb
REMARK                            x       y       z     vdW  Elec       q    Type
REMARK                         _______ _______ _______ _____ _____    ______ ____
ATOM      1  C   UNL     1      -3.700   0.000  94.500  0.00  0.00     0.000 C 
TER 
REMARK  Name = C:\Users\adria\Documents\proteinFP\data\structures\O15151.pdb
REMARK                            x       y       z     vdW  Elec       q    Type
REMARK                         _______ _______ _______ _____ _____    ______ ____
ATOM      1  C   UNL     1       8.136  -9.848  96.000  0.00  0.00     0.000 C 
TER 
REMARK  Name = C:\Users\adria\Documents\proteinFP\data\structures\O15151.pdb
REMARK                            x       y       z     vdW  Elec       q    Type
REMARK                         _______ _______ _______ _____ _____    ______ ____
ATOM      1  C   UNL     1      15.897   3.420  97.500  0.00  0.00     0.000 C 
TER 
REMARK  Name = C:\Users\adria\Documents\proteinFP\data\structures\O15151.pdb
REMARK                            x       y       z     vdW  Elec       q    Type
REMARK                         _______ _______ _______ _____ _____    ______ ____
ATOM      1  C   UNL     1       1.600   8.660  99.000  0.00  0.00     0.000 C 
TER 
REMARK  Name = C:\Users\adria\Documents\proteinFP\data\structures\O15151.pdb
REMARK                            x       y       z     vdW  Elec       q    Type
REMARK                         _______ _______ _______ _____ _____    ______ ____
ATOM      1  C   UNL     1      -0.960  -6.428 100.500  0.00  0.00     0.000 C 
TER 
REMARK  Name = C:\Users\adria\Documents\proteinFP\data\structures\O15151.pdb
REMARK                            x       y       z     vdW  Elec       q    Type
REMARK                         _______ _______ _______ _____ _____    ______ ____
ATOM      1  C   UNL     1      14.460  -6.428 102.000  0.00  0.00     0.000 C 
TER 
REMARK  Name = C:\Users\adria\Documents\proteinFP\data\structures\O15151.pdb
REMARK                            x       y       z     vdW  Elec       q    Type
REMARK                         _______ _______ _______ _____ _____    ______ ____
ATOM      1  C   UNL     1      11.900   8.660 103.500  0.00  0.00     0.000 C 
TER 
REMARK  Name = C:\Users\adria\Documents\proteinFP\data\structures\O15151.pdb
REMARK                            x       y       z     vdW  Elec       q    Type
REMARK                         _______ _______ _______ _____ _____    ______ ____
ATOM      1  C   UNL     1      -2.397   3.420 105.000  0.00  0.00     0.000 C 
TER 
REMARK  Name = C:\Users\adria\Documents\proteinFP\data\structures\O15151.pdb
REMARK                            x       y       z     vdW  Elec       q    Type
REMARK                         _______ _______ _______ _____ _____    ______ ____
ATOM      1  C   UNL     1       5.364  -9.848 106.500  0.00  0.00     0.000 C 
TER 
REMARK  Name = C:\Users\adria\Documents\proteinFP\data\structures\O15151.pdb
REMARK                            x       y       z     vdW  Elec       q    Type
REMARK                         _______ _______ _______ _____ _____    ______ ____
ATOM      1  C   UNL     1      17.200   0.000 108.000  0.00  0.00     0.000 C 
TER 
REMARK  Name = C:\Users\adria\Documents\proteinFP\data\structures\O15151.pdb
REMARK                            x       y       z     vdW  Elec       q    Type
REMARK                         _______ _______ _______ _____ _____    ______ ____
ATOM      1  C   UNL     1       5.564   9.848 109.500  0.00  0.00     0.000 C 
TER 
REMARK  Name = C:\Users\adria\Documents\proteinFP\data\structures\O15151.pdb
REMARK                            x       y       z     vdW  Elec       q    Type
REMARK                         _______ _______ _______ _____ _____    ______ ____
ATOM      1  C   UNL     1      -1.997  -3.420 111.000  0.00  0.00     0.000 C 
TER 
REMARK  Name = C:\Users\adria\Documents\proteinFP\data\structures\O15151.pdb
REMARK                            x       y       z     vdW  Elec       q    Type
REMARK                         _______ _______ _______ _____ _____    ______ ____
ATOM      1  C   UNL     1      12.500  -8.660 112.500  0.00  0.00     0.000 C 
TER 
REMARK  Name = C:\Users\adria\Documents\proteinFP\data\structures\O15151.pdb
REMARK                            x       y       z     vdW  Elec       q    Type
REMARK                         _______ _______ _______ _____ _____    ______ ____
ATOM      1  C   UNL     1      15.260   6.428 114.000  0.00  0.00     0.000 C 
TER 
REMARK  Name = C:\Users\adria\Documents\proteinFP\data\structures\O15151.pdb
REMARK                            x       y       z     vdW  Elec       q    Type
REMARK                         _______ _______ _______ _____ _____    ______ ____
ATOM      1  C   UNL     1       0.040   6.428 115.500  0.00  0.00     0.000 C 
TER 
REMARK  Name = C:\Users\adria\Documents\proteinFP\data\structures\O15151.pdb
REMARK                            x       y       z     vdW  Elec       q    Type
REMARK                         _______ _______ _______ _____ _____    ______ ____
ATOM      1  C   UNL     1       2.800  -8.660 117.000  0.00  0.00     0.000 C 
TER 
REMARK  Name = C:\Users\adria\Documents\proteinFP\data\structures\O15151.pdb
REMARK                            x       y       z     vdW  Elec       q    Type
REMARK                         _______ _______ _______ _____ _____    ______ ____
ATOM      1  C   UNL     1      17.297  -3.420 118.500  0.00  0.00     0.000 C 
TER 
REMARK  Name = C:\Users\adria\Documents\proteinFP\data\structures\O15151.pdb
REMARK                            x       y       z     vdW  Elec       q    Type
REMARK                         _______ _______ _______ _____ _____    ______ ____
ATOM      1  C   UNL     1       9.736   9.848 120.000  0.00  0.00     0.000 C 
TER 
REMARK  Name = C:\Users\adria\Documents\proteinFP\data\structures\O15151.pdb
REMARK                            x       y       z     vdW  Elec       q    Type
REMARK                         _______ _______ _______ _____ _____    ______ ____
ATOM      1  C   UNL     1      -1.900   0.000 121.500  0.00  0.00     0.000 C 
TER 
REMARK  Name = C:\Users\adria\Documents\proteinFP\data\structures\O15151.pdb
REMARK                            x       y       z     vdW  Elec       q    Type
REMARK                         _______ _______ _______ _____ _____    ______ ____
ATOM      1  C   UNL     1       9.936  -9.848 123.000  0.00  0.00     0.000 C 
TER 
REMARK  Name = C:\Users\adria\Documents\proteinFP\data\structures\O15151.pdb
REMARK                            x       y       z     vdW  Elec       q    Type
REMARK                         _______ _______ _______ _____ _____    ______ ____
ATOM      1  C   UNL     1      17.697   3.420 124.500  0.00  0.00     0.000 C 
TER 
REMARK  Name = C:\Users\adria\Documents\proteinFP\data\structures\O15151.pdb
REMARK                            x       y       z     vdW  Elec       q    Type
REMARK                         _______ _______ _______ _____ _____    ______ ____
ATOM      1  C   UNL     1       3.400   8.660 126.000  0.00  0.00     0.000 C 
TER 
REMARK  Name = C:\Users\adria\Documents\proteinFP\data\structures\O15151.pdb
REMARK                            x       y       z     vdW  Elec       q    Type
REMARK                         _______ _______ _______ _____ _____    ______ ____
ATOM      1  C   UNL     1       0.840  -6.428 127.500  0.00  0.00     0.000 C 
TER 
REMARK  Name = C:\Users\adria\Documents\proteinFP\data\structures\O15151.pdb
REMARK                            x       y       z     vdW  Elec       q    Type
REMARK                         _______ _______ _______ _____ _____    ______ ____
ATOM      1  C   UNL     1      16.260  -6.428 129.000  0.00  0.00     0.000 C 
TER 
REMARK  Name = C:\Users\adria\Documents\proteinFP\data\structures\O15151.pdb
REMARK                            x       y       z     vdW  Elec       q    Type
REMARK                         _______ _______ _______ _____ _____    ______ ____
ATOM      1  C   UNL     1      13.700   8.660 130.500  0.00  0.00     0.000 C 
TER 
REMARK  Name = C:\Users\adria\Documents\proteinFP\data\structures\O15151.pdb
REMARK                            x       y       z     vdW  Elec       q    Type
REMARK                         _______ _______ _______ _____ _____    ______ ____
ATOM      1  C   UNL     1      -0.597   3.420 132.000  0.00  0.00     0.000 C 
TER 
REMARK  Name = C:\Users\adria\Documents\proteinFP\data\structures\O15151.pdb
REMARK                            x       y       z     vdW  Elec       q    Type
REMARK                         _______ _______ _______ _____ _____    ______ ____
ATOM      1  C   UNL     1       7.164  -9.848 133.500  0.00  0.00     0.000 C 
TER 
REMARK  Name = C:\Users\adria\Documents\proteinFP\data\structures\O15151.pdb
REMARK                            x       y       z     vdW  Elec       q    Type
REMARK                         _______ _______ _______ _____ _____    ______ ____
ATOM      1  C   UNL     1      19.000   0.000 135.000  0.00  0.00     0.000 C 
TER 
REMARK  Name = C:\Users\adria\Documents\proteinFP\data\structures\O15151.pdb
REMARK                            x       y       z     vdW  Elec       q    Type
REMARK                         _______ _______ _______ _____ _____    ______ ____
ATOM      1  C   UNL     1       7.364   9.848 136.500  0.00  0.00     0.000 C 
TER 
REMARK  Name = C:\Users\adria\Documents\proteinFP\data\structures\O15151.pdb
REMARK                            x       y       z     vdW  Elec       q    Type
REMARK                         _______ _______ _______ _____ _____    ______ ____
ATOM      1  C   UNL     1      -0.197  -3.420 138.000  0.00  0.00     0.000 C 
TER 
REMARK  Name = C:\Users\adria\Documents\proteinFP\data\structures\O15151.pdb
REMARK                            x       y       z     vdW  Elec       q    Type
REMARK                         _______ _______ _______ _____ _____    ______ ____
ATOM      1  C   UNL     1      14.300  -8.660 139.500  0.00  0.00     0.000 C 
TER 
REMARK  Name = C:\Users\adria\Documents\proteinFP\data\structures\O15151.pdb
REMARK                            x       y       z     vdW  Elec       q    Type
REMARK                         _______ _______ _______ _____ _____    ______ ____
ATOM      1  C   UNL     1      17.060   6.428 141.000  0.00  0.00     0.000 C 
TER 
REMARK  Name = C:\Users\adria\Documents\proteinFP\data\structures\O15151.pdb
REMARK                            x       y       z     vdW  Elec       q    Type
REMARK                         _______ _______ _______ _____ _____    ______ ____
ATOM      1  C   UNL     1       1.840   6.428 142.500  0.00  0.00     0.000 C 
TER 
REMARK  Name = C:\Users\adria\Documents\proteinFP\data\structures\O15151.pdb
REMARK                            x       y       z     vdW  Elec       q    Type
REMARK                         _______ _______ _______ _____ _____    ______ ____
ATOM      1  C   UNL     1       4.600  -8.660 144.000  0.00  0.00     0.000 C 
TER 
REMARK  Name = C:\Users\adria\Documents\proteinFP\data\structures\O15151.pdb
REMARK                            x       y       z     vdW  Elec       q    Type
REMARK                         _______ _______ _______ _____ _____    ______ ____
ATOM      1  C   UNL     1      19.097  -3.420 145.500  0.00  0.00     0.000 C 
TER 
REMARK  Name = C:\Users\adria\Documents\proteinFP\data\structures\O15151.pdb
REMARK                            x       y       z     vdW  Elec       q    Type
REMARK                         _______ _______ _______ _____ _____    ______ ____
ATOM      1  C   UNL     1      11.536   9.848 147.000  0.00  0.00     0.000 C 
TER 
REMARK  Name = C:\Users\adria\Documents\proteinFP\data\structures\O15151.pdb
REMARK                            x       y       z     vdW  Elec       q    Type
REMARK                         _______ _______ _______ _____ _____    ______ ____
ATOM      1  C   UNL     1      -0.100   0.000 148.500  0.00  0.00     0.000 C 
TER 
REMARK  Name = C:\Users\adria\Documents\proteinFP\data\structures\O15151.pdb
REMARK                            x       y       z     vdW  Elec       q    Type
REMARK                         _______ _______ _______ _____ _____    ______ ____
ATOM      1  C   UNL     1      11.736  -9.848 150.000  0.00  0.00     0.000 C 
TER 
REMARK  Name = C:\Users\adria\Documents\proteinFP\data\structures\O15151.pdb
REMARK                            x       y       z     vdW  Elec       q    Type
REMARK                         _______ _______ _______ _____ _____    ______ ____
ATOM      1  C   UNL     1      19.497   3.420 151.500  0.00  0.00     0.000 C 
TER 
REMARK  Name = C:\Users\adria\Documents\proteinFP\data\structures\O15151.pdb
REMARK                            x       y       z     vdW  Elec       q    Type
REMARK                         _______ _______ _______ _____ _____    ______ ____
ATOM      1  C   UNL     1       5.200   8.660 153.000  0.00  0.00     0.000 C 
TER 
REMARK  Name = C:\Users\adria\Documents\proteinFP\data\structures\O15151.pdb
REMARK                            x       y       z     vdW  Elec       q    Type
REMARK                         _______ _______ _______ _____ _____    ______ ____
ATOM      1  C   UNL     1       2.640  -6.428 154.500  0.00  0.00     0.000 C 
TER 
REMARK  Name = C:\Users\adria\Documents\proteinFP\data\structures\O15151.pdb
REMARK                            x       y       z     vdW  Elec       q    Type
REMARK                         _______ _______ _______ _____ _____    ______ ____
ATOM      1  C   UNL     1      18.060  -6.428 156.000  0.00  0.00     0.000 C 
TER 
REMARK  Name = C:\Users\adria\Documents\proteinFP\data\structures\O15151.pdb
REMARK                            x       y       z     vdW  Elec       q    Type
REMARK                         _______ _______ _______ _____ _____    ______ ____
ATOM      1  C   UNL     1      15.500   8.660 157.500  0.00  0.00     0.000 C 
TER 
REMARK  Name = C:\Users\adria\Documents\proteinFP\data\structures\O15151.pdb
REMARK                            x       y       z     vdW  Elec       q    Type
REMARK                         _______ _______ _______ _____ _____    ______ ____
ATOM      1  C   UNL     1       1.203   3.420 159.000  0.00  0.00     0.000 C 
TER 
REMARK  Name = C:\Users\adria\Documents\proteinFP\data\structures\O15151.pdb
REMARK                            x       y       z     vdW  Elec       q    Type
REMARK                         _______ _______ _______ _____ _____    ______ ____
ATOM      1  C   UNL     1       8.964  -9.848 160.500  0.00  0.00     0.000 C 
TER 
REMARK  Name = C:\Users\adria\Documents\proteinFP\data\structures\O15151.pdb
REMARK                            x       y       z     vdW  Elec       q    Type
REMARK                         _______ _______ _______ _____ _____    ______ ____
ATOM      1  C   UNL     1      20.800   0.000 162.000  0.00  0.00     0.000 C 
TER 
REMARK  Name = C:\Users\adria\Documents\proteinFP\data\structures\O15151.pdb
REMARK                            x       y       z     vdW  Elec       q    Type
REMARK                         _______ _______ _______ _____ _____    ______ ____
ATOM      1  C   UNL     1       9.164   9.848 163.500  0.00  0.00     0.000 C 
TER 
REMARK  Name = C:\Users\adria\Documents\proteinFP\data\structures\O15151.pdb
REMARK                            x       y       z     vdW  Elec       q    Type
REMARK                         _______ _______ _______ _____ _____    ______ ____
ATOM      1  C   UNL     1       1.603  -3.420 165.000  0.00  0.00     0.000 C 
TER 
REMARK  Name = C:\Users\adria\Documents\proteinFP\data\structures\O15151.pdb
REMARK                            x       y       z     vdW  Elec       q    Type
REMARK                         _______ _______ _______ _____ _____    ______ ____
ATOM      1  C   UNL     1      16.100  -8.660 166.500  0.00  0.00     0.000 C 
TER 
REMARK  Name = C:\Users\adria\Documents\proteinFP\data\structures\O15151.pdb
REMARK                            x       y       z     vdW  Elec       q    Type
REMARK                         _______ _______ _______ _____ _____    ______ ____
ATOM      1  C   UNL     1      18.860   6.428 168.000  0.00  0.00     0.000 C 
TER 
REMARK  Name = C:\Users\adria\Documents\proteinFP\data\structures\O15151.pdb
REMARK                            x       y       z     vdW  Elec       q    Type
REMARK                         _______ _______ _______ _____ _____    ______ ____
ATOM      1  C   UNL     1       3.640   6.428 169.500  0.00  0.00     0.000 C 
TER 
REMARK  Name = C:\Users\adria\Documents\proteinFP\data\structures\O15151.pdb
REMARK                            x       y       z     vdW  Elec       q    Type
REMARK                         _______ _______ _______ _____ _____    ______ ____
ATOM      1  C   UNL     1       6.400  -8.660 171.000  0.00  0.00     0.000 C 
TER 
REMARK  Name = C:\Users\adria\Documents\proteinFP\data\structures\O15151.pdb
REMARK                            x       y       z     vdW  Elec       q    Type
REMARK                         _______ _______ _______ _____ _____    ______ ____
ATOM      1  C   UNL     1      20.897  -3.420 172.500  0.00  0.00     0.000 C 
TER 
REMARK  Name = C:\Users\adria\Documents\proteinFP\data\structures\O15151.pdb
REMARK                            x       y       z     vdW  Elec       q    Type
REMARK                         _______ _______ _______ _____ _____    ______ ____
ATOM      1  C   UNL     1      13.336   9.848 174.000  0.00  0.00     0.000 C 
TER 
REMARK  Name = C:\Users\adria\Documents\proteinFP\data\structures\O15151.pdb
REMARK                            x       y       z     vdW  Elec       q    Type
REMARK                         _______ _______ _______ _____ _____    ______ ____
ATOM      1  C   UNL     1       1.700   0.000 175.500  0.00  0.00     0.000 C 
TER 
REMARK  Name = C:\Users\adria\Documents\proteinFP\data\structures\O15151.pdb
REMARK                            x       y       z     vdW  Elec       q    Type
REMARK                         _______ _______ _______ _____ _____    ______ ____
ATOM      1  C   UNL     1      13.536  -9.848 177.000  0.00  0.00     0.000 C 
TER 
REMARK  Name = C:\Users\adria\Documents\proteinFP\data\structures\O15151.pdb
REMARK                            x       y       z     vdW  Elec       q    Type
REMARK                         _______ _______ _______ _____ _____    ______ ____
ATOM      1  C   UNL     1      21.297   3.420 178.500  0.00  0.00     0.000 C 
TER 
REMARK  Name = C:\Users\adria\Documents\proteinFP\data\structures\O15151.pdb
REMARK                            x       y       z     vdW  Elec       q    Type
REMARK                         _______ _______ _______ _____ _____    ______ ____
ATOM      1  C   UNL     1       7.000   8.660 180.000  0.00  0.00     0.000 C 
TER 
REMARK  Name = C:\Users\adria\Documents\proteinFP\data\structures\O15151.pdb
REMARK                            x       y       z     vdW  Elec       q    Type
REMARK                         _______ _______ _______ _____ _____    ______ ____
ATOM      1  C   UNL     1       4.440  -6.428 181.500  0.00  0.00     0.000 C 
TER 
REMARK  Name = C:\Users\adria\Documents\proteinFP\data\structures\O15151.pdb
REMARK                            x       y       z     vdW  Elec       q    Type
REMARK                         _______ _______ _______ _____ _____    ______ ____
ATOM      1  C   UNL     1      19.860  -6.428 183.000  0.00  0.00     0.000 C 
TER 
REMARK  Name = C:\Users\adria\Documents\proteinFP\data\structures\O15151.pdb
REMARK                            x       y       z     vdW  Elec       q    Type
REMARK                         _______ _______ _______ _____ _____    ______ ____
ATOM      1  C   UNL     1      17.300   8.660 184.500  0.00  0.00     0.000 C 
TER 
REMARK  Name = C:\Users\adria\Documents\proteinFP\data\structures\O15151.pdb
REMARK                            x       y       z     vdW  Elec       q    Type
REMARK                         _______ _______ _______ _____ _____    ______ ____
ATOM      1  C   UNL     1       3.003   3.420 186.000  0.00  0.00     0.000 C 
TER 
REMARK  Name = C:\Users\adria\Documents\proteinFP\data\structures\O15151.pdb
REMARK                            x       y       z     vdW  Elec       q    Type
REMARK                         _______ _______ _______ _____ _____    ______ ____
ATOM      1  C   UNL     1      10.764  -9.848 187.500  0.00  0.00     0.000 C 
TER 
REMARK  Name = C:\Users\adria\Documents\proteinFP\data\structures\O15151.pdb
REMARK                            x       y       z     vdW  Elec       q    Type
REMARK                         _______ _______ _______ _____ _____    ______ ____
ATOM      1  C   UNL     1      22.600   0.000 189.000  0.00  0.00     0.000 C 
TER 
REMARK  Name = C:\Users\adria\Documents\proteinFP\data\structures\O15151.pdb
REMARK                            x       y       z     vdW  Elec       q    Type
REMARK                         _______ _______ _______ _____ _____    ______ ____
ATOM      1  C   UNL     1      10.964   9.848 190.500  0.00  0.00     0.000 C 
TER 
REMARK  Name = C:\Users\adria\Documents\proteinFP\data\structures\O15151.pdb
REMARK                            x       y       z     vdW  Elec       q    Type
REMARK                         _______ _______ _______ _____ _____    ______ ____
ATOM      1  C   UNL     1       3.403  -3.420 192.000  0.00  0.00     0.000 C 
TER 
REMARK  Name = C:\Users\adria\Documents\proteinFP\data\structures\O15151.pdb
REMARK                            x       y       z     vdW  Elec       q    Type
REMARK                         _______ _______ _______ _____ _____    ______ ____
ATOM      1  C   UNL     1      17.900  -8.660 193.500  0.00  0.00     0.000 C 
TER 
REMARK  Name = C:\Users\adria\Documents\proteinFP\data\structures\O15151.pdb
REMARK                            x       y       z     vdW  Elec       q    Type
REMARK                         _______ _______ _______ _____ _____    ______ ____
ATOM      1  C   UNL     1      20.660   6.428 195.000  0.00  0.00     0.000 C 
TER 
REMARK  Name = C:\Users\adria\Documents\proteinFP\data\structures\O15151.pdb
REMARK                            x       y       z     vdW  Elec       q    Type
REMARK                         _______ _______ _______ _____ _____    ______ ____
ATOM      1  C   UNL     1       5.440   6.428 196.500  0.00  0.00     0.000 C 
TER 
REMARK  Name = C:\Users\adria\Documents\proteinFP\data\structures\O15151.pdb
REMARK                            x       y       z     vdW  Elec       q    Type
REMARK                         _______ _______ _______ _____ _____    ______ ____
ATOM      1  C   UNL     1       8.200  -8.660 198.000  0.00  0.00     0.000 C 
TER 
REMARK  Name = C:\Users\adria\Documents\proteinFP\data\structures\O15151.pdb
REMARK                            x       y       z     vdW  Elec       q    Type
REMARK                         _______ _______ _______ _____ _____    ______ ____
ATOM      1  C   UNL     1      22.697  -3.420 199.500  0.00  0.00     0.000 C 
TER 
REMARK  Name = C:\Users\adria\Documents\proteinFP\data\structures\O15151.pdb
REMARK                            x       y       z     vdW  Elec       q    Type
REMARK                         _______ _______ _______ _____ _____    ______ ____
ATOM      1  C   UNL     1      15.136   9.848 201.000  0.00  0.00     0.000 C 
TER 
REMARK  Name = C:\Users\adria\Documents\proteinFP\data\structures\O15151.pdb
REMARK                            x       y       z     vdW  Elec       q    Type
REMARK                         _______ _______ _______ _____ _____    ______ ____
ATOM      1  C   UNL     1       3.500   0.000 202.500  0.00  0.00     0.000 C 
TER 
REMARK  Name = C:\Users\adria\Documents\proteinFP\data\structures\O15151.pdb
REMARK                            x       y       z     vdW  Elec       q    Type
REMARK                         _______ _______ _______ _____ _____    ______ ____
ATOM      1  C   UNL     1      15.336  -9.848 204.000  0.00  0.00     0.000 C 
TER 
REMARK  Name = C:\Users\adria\Documents\proteinFP\data\structures\O15151.pdb
REMARK                            x       y       z     vdW  Elec       q    Type
REMARK                         _______ _______ _______ _____ _____    ______ ____
ATOM      1  C   UNL     1      23.097   3.420 205.500  0.00  0.00     0.000 C 
TER 
REMARK  Name = C:\Users\adria\Documents\proteinFP\data\structures\O15151.pdb
REMARK                            x       y       z     vdW  Elec       q    Type
REMARK                         _______ _______ _______ _____ _____    ______ ____
ATOM      1  C   UNL     1       8.800   8.660 207.000  0.00  0.00     0.000 C 
TER 
REMARK  Name = C:\Users\adria\Documents\proteinFP\data\structures\O15151.pdb
REMARK                            x       y       z     vdW  Elec       q    Type
REMARK                         _______ _______ _______ _____ _____    ______ ____
ATOM      1  C   UNL     1       6.240  -6.428 208.500  0.00  0.00     0.000 C 
TER 
REMARK  Name = C:\Users\adria\Documents\proteinFP\data\structures\O15151.pdb
REMARK                            x       y       z     vdW  Elec       q    Type
REMARK                         _______ _______ _______ _____ _____    ______ ____
ATOM      1  C   UNL     1      21.660  -6.428 210.000  0.00  0.00     0.000 C 
TER 
REMARK  Name = C:\Users\adria\Documents\proteinFP\data\structures\O15151.pdb
REMARK                            x       y       z     vdW  Elec       q    Type
REMARK                         _______ _______ _______ _____ _____    ______ ____
ATOM      1  C   UNL     1      19.100   8.660 211.500  0.00  0.00     0.000 C 
TER 
REMARK  Name = C:\Users\adria\Documents\proteinFP\data\structures\O15151.pdb
REMARK                            x       y       z     vdW  Elec       q    Type
REMARK                         _______ _______ _______ _____ _____    ______ ____
ATOM      1  C   UNL     1       4.803   3.420 213.000  0.00  0.00     0.000 C 
TER 
REMARK  Name = C:\Users\adria\Documents\proteinFP\data\structures\O15151.pdb
REMARK                            x       y       z     vdW  Elec       q    Type
REMARK                         _______ _______ _______ _____ _____    ______ ____
ATOM      1  C   UNL     1      12.564  -9.848 214.500  0.00  0.00     0.000 C 
TER 
REMARK  Name = C:\Users\adria\Documents\proteinFP\data\structures\O15151.pdb
REMARK                            x       y       z     vdW  Elec       q    Type
REMARK                         _______ _______ _______ _____ _____    ______ ____
ATOM      1  C   UNL     1      24.400   0.000 216.000  0.00  0.00     0.000 C 
TER 
REMARK  Name = C:\Users\adria\Documents\proteinFP\data\structures\O15151.pdb
REMARK                            x       y       z     vdW  Elec       q    Type
REMARK                         _______ _______ _______ _____ _____    ______ ____
ATOM      1  C   UNL     1      12.764   9.848 217.500  0.00  0.00     0.000 C 
TER 
REMARK  Name = C:\Users\adria\Documents\proteinFP\data\structures\O15151.pdb
REMARK                            x       y       z     vdW  Elec       q    Type
REMARK                         _______ _______ _______ _____ _____    ______ ____
ATOM      1  C   UNL     1       5.203  -3.420 219.000  0.00  0.00     0.000 C 
TER 
REMARK  Name = C:\Users\adria\Documents\proteinFP\data\structures\O15151.pdb
REMARK                            x       y       z     vdW  Elec       q    Type
REMARK                         _______ _______ _______ _____ _____    ______ ____
ATOM      1  C   UNL     1      19.700  -8.660 220.500  0.00  0.00     0.000 C 
TER 
REMARK  Name = C:\Users\adria\Documents\proteinFP\data\structures\O15151.pdb
REMARK                            x       y       z     vdW  Elec       q    Type
REMARK                         _______ _______ _______ _____ _____    ______ ____
ATOM      1  C   UNL     1      22.460   6.428 222.000  0.00  0.00     0.000 C 
TER 
REMARK  Name = C:\Users\adria\Documents\proteinFP\data\structures\O15151.pdb
REMARK                            x       y       z     vdW  Elec       q    Type
REMARK                         _______ _______ _______ _____ _____    ______ ____
ATOM      1  C   UNL     1       7.240   6.428 223.500  0.00  0.00     0.000 C 
TER 
REMARK  Name = C:\Users\adria\Documents\proteinFP\data\structures\O15151.pdb
REMARK                            x       y       z     vdW  Elec       q    Type
REMARK                         _______ _______ _______ _____ _____    ______ ____
ATOM      1  C   UNL     1      10.000  -8.660 225.000  0.00  0.00     0.000 C 
TER 
REMARK  Name = C:\Users\adria\Documents\proteinFP\data\structures\O15151.pdb
REMARK                            x       y       z     vdW  Elec       q    Type
REMARK                         _______ _______ _______ _____ _____    ______ ____
ATOM      1  C   UNL     1      24.497  -3.420 226.500  0.00  0.00     0.000 C 
TER 
REMARK  Name = C:\Users\adria\Documents\proteinFP\data\structures\O15151.pdb
REMARK                            x       y       z     vdW  Elec       q    Type
REMARK                         _______ _______ _______ _____ _____    ______ ____
ATOM      1  C   UNL     1      16.936   9.848 228.000  0.00  0.00     0.000 C 
TER 
REMARK  Name = C:\Users\adria\Documents\proteinFP\data\structures\O15151.pdb
REMARK                            x       y       z     vdW  Elec       q    Type
REMARK                         _______ _______ _______ _____ _____    ______ ____
ATOM      1  C   UNL     1       5.300   0.000 229.500  0.00  0.00     0.000 C 
TER 
REMARK  Name = C:\Users\adria\Documents\proteinFP\data\structures\O15151.pdb
REMARK                            x       y       z     vdW  Elec       q    Type
REMARK                         _______ _______ _______ _____ _____    ______ ____
ATOM      1  C   UNL     1      17.136  -9.848 231.000  0.00  0.00     0.000 C 
TER 
REMARK  Name = C:\Users\adria\Documents\proteinFP\data\structures\O15151.pdb
REMARK                            x       y       z     vdW  Elec       q    Type
REMARK                         _______ _______ _______ _____ _____    ______ ____
ATOM      1  C   UNL     1      24.897   3.420 232.500  0.00  0.00     0.000 C 
TER 
REMARK  Name = C:\Users\adria\Documents\proteinFP\data\structures\O15151.pdb
REMARK                            x       y       z     vdW  Elec       q    Type
REMARK                         _______ _______ _______ _____ _____    ______ ____
ATOM      1  C   UNL     1      10.600   8.660 234.000  0.00  0.00     0.000 C 
TER 
REMARK  Name = C:\Users\adria\Documents\proteinFP\data\structures\O15151.pdb
REMARK                            x       y       z     vdW  Elec       q    Type
REMARK                         _______ _______ _______ _____ _____    ______ ____
ATOM      1  C   UNL     1       8.040  -6.428 235.500  0.00  0.00     0.000 C 
TER 
REMARK  Name = C:\Users\adria\Documents\proteinFP\data\structures\O15151.pdb
REMARK                            x       y       z     vdW  Elec       q    Type
REMARK                         _______ _______ _______ _____ _____    ______ ____
ATOM      1  C   UNL     1      23.460  -6.428 237.000  0.00  0.00     0.000 C 
TER 
REMARK  Name = C:\Users\adria\Documents\proteinFP\data\structures\O15151.pdb
REMARK                            x       y       z     vdW  Elec       q    Type
REMARK                         _______ _______ _______ _____ _____    ______ ____
ATOM      1  C   UNL     1      20.900   8.660 238.500  0.00  0.00     0.000 C 
TER 
REMARK  Name = C:\Users\adria\Documents\proteinFP\data\structures\O15151.pdb
REMARK                            x       y       z     vdW  Elec       q    Type
REMARK                         _______ _______ _______ _____ _____    ______ ____
ATOM      1  C   UNL     1       6.603   3.420 240.000  0.00  0.00     0.000 C 
TER 
REMARK  Name = C:\Users\adria\Documents\proteinFP\data\structures\O15151.pdb
REMARK                            x       y       z     vdW  Elec       q    Type
REMARK                         _______ _______ _______ _____ _____    ______ ____
ATOM      1  C   UNL     1      14.364  -9.848 241.500  0.00  0.00     0.000 C 
TER 
REMARK  Name = C:\Users\adria\Documents\proteinFP\data\structures\O15151.pdb
REMARK                            x       y       z     vdW  Elec       q    Type
REMARK                         _______ _______ _______ _____ _____    ______ ____
ATOM      1  C   UNL     1      26.200   0.000 243.000  0.00  0.00     0.000 C 
TER 
REMARK  Name = C:\Users\adria\Documents\proteinFP\data\structures\O15151.pdb
REMARK                            x       y       z     vdW  Elec       q    Type
REMARK                         _______ _______ _______ _____ _____    ______ ____
ATOM      1  C   UNL     1      14.564   9.848 244.500  0.00  0.00     0.000 C 
TER 
REMARK  Name = C:\Users\adria\Documents\proteinFP\data\structures\O15151.pdb
REMARK                            x       y       z     vdW  Elec       q    Type
REMARK                         _______ _______ _______ _____ _____    ______ ____
ATOM      1  C   UNL     1       7.003  -3.420 246.000  0.00  0.00     0.000 C 
TER 
REMARK  Name = C:\Users\adria\Documents\proteinFP\data\structures\O15151.pdb
REMARK                            x       y       z     vdW  Elec       q    Type
REMARK                         _______ _______ _______ _____ _____    ______ ____
ATOM      1  C   UNL     1      21.500  -8.660 247.500  0.00  0.00     0.000 C 
TER 
REMARK  Name = C:\Users\adria\Documents\proteinFP\data\structures\O15151.pdb
REMARK                            x       y       z     vdW  Elec       q    Type
REMARK                         _______ _______ _______ _____ _____    ______ ____
ATOM      1  C   UNL     1      24.260   6.428 249.000  0.00  0.00     0.000 C 
TER 
REMARK  Name = C:\Users\adria\Documents\proteinFP\data\structures\O15151.pdb
REMARK                            x       y       z     vdW  Elec       q    Type
REMARK                         _______ _______ _______ _____ _____    ______ ____
ATOM      1  C   UNL     1       9.040   6.428 250.500  0.00  0.00     0.000 C 
TER 
REMARK  Name = C:\Users\adria\Documents\proteinFP\data\structures\O15151.pdb
REMARK                            x       y       z     vdW  Elec       q    Type
REMARK                         _______ _______ _______ _____ _____    ______ ____
ATOM      1  C   UNL     1      11.800  -8.660 252.000  0.00  0.00     0.000 C 
TER 
REMARK  Name = C:\Users\adria\Documents\proteinFP\data\structures\O15151.pdb
REMARK                            x       y       z     vdW  Elec       q    Type
REMARK                         _______ _______ _______ _____ _____    ______ ____
ATOM      1  C   UNL     1      26.297  -3.420 253.500  0.00  0.00     0.000 C 
TER 
REMARK  Name = C:\Users\adria\Documents\proteinFP\data\structures\O15151.pdb
REMARK                            x       y       z     vdW  Elec       q    Type
REMARK                         _______ _______ _______ _____ _____    ______ ____
ATOM      1  C   UNL     1      18.736   9.848 255.000  0.00  0.00     0.000 C 
TER 
REMARK  Name = C:\Users\adria\Documents\proteinFP\data\structures\O15151.pdb
REMARK                            x       y       z     vdW  Elec       q    Type
REMARK                         _______ _______ _______ _____ _____    ______ ____
ATOM      1  C   UNL     1       7.100   0.000 256.500  0.00  0.00     0.000 C 
TER 
REMARK  Name = C:\Users\adria\Documents\proteinFP\data\structures\O15151.pdb
REMARK                            x       y       z     vdW  Elec       q    Type
REMARK                         _______ _______ _______ _____ _____    ______ ____
ATOM      1  C   UNL     1      18.936  -9.848 258.000  0.00  0.00     0.000 C 
TER 
REMARK  Name = C:\Users\adria\Documents\proteinFP\data\structures\O15151.pdb
REMARK                            x       y       z     vdW  Elec       q    Type
REMARK                         _______ _______ _______ _____ _____    ______ ____
ATOM      1  C   UNL     1      26.697   3.420 259.500  0.00  0.00     0.000 C 
TER 
REMARK  Name = C:\Users\adria\Documents\proteinFP\data\structures\O15151.pdb
REMARK                            x       y       z     vdW  Elec       q    Type
REMARK                         _______ _______ _______ _____ _____    ______ ____
ATOM      1  C   UNL     1      12.400   8.660 261.000  0.00  0.00     0.000 C 
TER 
REMARK  Name = C:\Users\adria\Documents\proteinFP\data\structures\O15151.pdb
REMARK                            x       y       z     vdW  Elec       q    Type
REMARK                         _______ _______ _______ _____ _____    ______ ____
ATOM      1  C   UNL     1       9.840  -6.428 262.500  0.00  0.00     0.000 C 
TER 
REMARK  Name = C:\Users\adria\Documents\proteinFP\data\structures\O15151.pdb
REMARK                            x       y       z     vdW  Elec       q    Type
REMARK                         _______ _______ _______ _____ _____    ______ ____
ATOM      1  C   UNL     1      25.260  -6.428 264.000  0.00  0.00     0.000 C 
TER 
REMARK  Name = C:\Users\adria\Documents\proteinFP\data\structures\O15151.pdb
REMARK                            x       y       z     vdW  Elec       q    Type
REMARK                         _______ _______ _______ _____ _____    ______ ____
ATOM      1  C   UNL     1      22.700   8.660 265.500  0.00  0.00     0.000 C 
TER 
REMARK  Name = C:\Users\adria\Documents\proteinFP\data\structures\O15151.pdb
REMARK                            x       y       z     vdW  Elec       q    Type
REMARK                         _______ _______ _______ _____ _____    ______ ____
ATOM      1  C   UNL     1       8.403   3.420 267.000  0.00  0.00     0.000 C 
TER 
REMARK  Name = C:\Users\adria\Documents\proteinFP\data\structures\O15151.pdb
REMARK                            x       y       z     vdW  Elec       q    Type
REMARK                         _______ _______ _______ _____ _____    ______ ____
ATOM      1  C   UNL     1      16.164  -9.848 268.500  0.00  0.00     0.000 C 
TER 
REMARK  Name = C:\Users\adria\Documents\proteinFP\data\structures\O15151.pdb
REMARK                            x       y       z     vdW  Elec       q    Type
REMARK                         _______ _______ _______ _____ _____    ______ ____
ATOM      1  C   UNL     1      28.000   0.000 270.000  0.00  0.00     0.000 C 
TER 
REMARK  Name = C:\Users\adria\Documents\proteinFP\data\structures\O15151.pdb
REMARK                            x       y       z     vdW  Elec       q    Type
REMARK                         _______ _______ _______ _____ _____    ______ ____
ATOM      1  C   UNL     1      16.364   9.848 271.500  0.00  0.00     0.000 C 
TER 
REMARK  Name = C:\Users\adria\Documents\proteinFP\data\structures\O15151.pdb
REMARK                            x       y       z     vdW  Elec       q    Type
REMARK                         _______ _______ _______ _____ _____    ______ ____
ATOM      1  C   UNL     1       8.803  -3.420 273.000  0.00  0.00     0.000 C 
TER 
REMARK  Name = C:\Users\adria\Documents\proteinFP\data\structures\O15151.pdb
REMARK                            x       y       z     vdW  Elec       q    Type
REMARK                         _______ _______ _______ _____ _____    ______ ____
ATOM      1  C   UNL     1      23.300  -8.660 274.500  0.00  0.00     0.000 C 
TER 
REMARK  Name = C:\Users\adria\Documents\proteinFP\data\structures\O15151.pdb
REMARK                            x       y       z     vdW  Elec       q    Type
REMARK                         _______ _______ _______ _____ _____    ______ ____
ATOM      1  C   UNL     1      26.060   6.428 276.000  0.00  0.00     0.000 C 
TER 
REMARK  Name = C:\Users\adria\Documents\proteinFP\data\structures\O15151.pdb
REMARK                            x       y       z     vdW  Elec       q    Type
REMARK                         _______ _______ _______ _____ _____    ______ ____
ATOM      1  C   UNL     1      10.840   6.428 277.500  0.00  0.00     0.000 C 
TER 
REMARK  Name = C:\Users\adria\Documents\proteinFP\data\structures\O15151.pdb
REMARK                            x       y       z     vdW  Elec       q    Type
REMARK                         _______ _______ _______ _____ _____    ______ ____
ATOM      1  C   UNL     1      13.600  -8.660 279.000  0.00  0.00     0.000 C 
TER 
REMARK  Name = C:\Users\adria\Documents\proteinFP\data\structures\O15151.pdb
REMARK                            x       y       z     vdW  Elec       q    Type
REMARK                         _______ _______ _______ _____ _____    ______ ____
ATOM      1  C   UNL     1      28.097  -3.420 280.500  0.00  0.00     0.000 C 
TER 
REMARK  Name = C:\Users\adria\Documents\proteinFP\data\structures\O15151.pdb
REMARK                            x       y       z     vdW  Elec       q    Type
REMARK                         _______ _______ _______ _____ _____    ______ ____
ATOM      1  C   UNL     1      20.536   9.848 282.000  0.00  0.00     0.000 C 
TER 
REMARK  Name = C:\Users\adria\Documents\proteinFP\data\structures\O15151.pdb
REMARK                            x       y       z     vdW  Elec       q    Type
REMARK                         _______ _______ _______ _____ _____    ______ ____
ATOM      1  C   UNL     1       8.900   0.000 283.500  0.00  0.00     0.000 C 
TER 
REMARK  Name = C:\Users\adria\Documents\proteinFP\data\structures\O15151.pdb
REMARK                            x       y       z     vdW  Elec       q    Type
REMARK                         _______ _______ _______ _____ _____    ______ ____
ATOM      1  C   UNL     1      20.736  -9.848 285.000  0.00  0.00     0.000 C 
TER 
REMARK  Name = C:\Users\adria\Documents\proteinFP\data\structures\O15151.pdb
REMARK                            x       y       z     vdW  Elec       q    Type
REMARK                         _______ _______ _______ _____ _____    ______ ____
ATOM      1  C   UNL     1      28.497   3.420 286.500  0.00  0.00     0.000 C 
TER 
REMARK  Name = C:\Users\adria\Documents\proteinFP\data\structures\O15151.pdb
REMARK                            x       y       z     vdW  Elec       q    Type
REMARK                         _______ _______ _______ _____ _____    ______ ____
ATOM      1  C   UNL     1      14.200   8.660 288.000  0.00  0.00     0.000 C 
TER 
REMARK  Name = C:\Users\adria\Documents\proteinFP\data\structures\O15151.pdb
REMARK                            x       y       z     vdW  Elec       q    Type
REMARK                         _______ _______ _______ _____ _____    ______ ____
ATOM      1  C   UNL     1      11.640  -6.428 289.500  0.00  0.00     0.000 C 
TER 
REMARK  Name = C:\Users\adria\Documents\proteinFP\data\structures\O15151.pdb
REMARK                            x       y       z     vdW  Elec       q    Type
REMARK                         _______ _______ _______ _____ _____    ______ ____
ATOM      1  C   UNL     1      27.060  -6.428 291.000  0.00  0.00     0.000 C 
TER 
REMARK  Name = C:\Users\adria\Documents\proteinFP\data\structures\O15151.pdb
REMARK                            x       y       z     vdW  Elec       q    Type
REMARK                         _______ _______ _______ _____ _____    ______ ____
ATOM      1  C   UNL     1      24.500   8.660 292.500  0.00  0.00     0.000 C 
TER 
REMARK  Name = C:\Users\adria\Documents\proteinFP\data\structures\O15151.pdb
REMARK                            x       y       z     vdW  Elec       q    Type
REMARK                         _______ _______ _______ _____ _____    ______ ____
ATOM      1  C   UNL     1      10.203   3.420 294.000  0.00  0.00     0.000 C 
TER 
REMARK  Name = C:\Users\adria\Documents\proteinFP\data\structures\O15151.pdb
REMARK                            x       y       z     vdW  Elec       q    Type
REMARK                         _______ _______ _______ _____ _____    ______ ____
ATOM      1  C   UNL     1      17.964  -9.848 295.500  0.00  0.00     0.000 C 
TER 
REMARK  Name = C:\Users\adria\Documents\proteinFP\data\structures\O15151.pdb
REMARK                            x       y       z     vdW  Elec       q    Type
REMARK                         _______ _______ _______ _____ _____    ______ ____
ATOM      1  C   UNL     1      29.800   0.000 297.000  0.00  0.00     0.000 C 
TER 
REMARK  Name = C:\Users\adria\Documents\proteinFP\data\structures\O15151.pdb
REMARK                            x       y       z     vdW  Elec       q    Type
REMARK                         _______ _______ _______ _____ _____    ______ ____
ATOM      1  C   UNL     1      18.164   9.848 298.500  0.00  0.00     0.000 C 
TER 
REMARK  Name = C:\Users\adria\Documents\proteinFP\data\structures\O15151.pdb
REMARK                            x       y       z     vdW  Elec       q    Type
REMARK                         _______ _______ _______ _____ _____    ______ ____
ATOM      1  C   UNL     1      10.603  -3.420 300.000  0.00  0.00     0.000 C 
TER 
REMARK  Name = C:\Users\adria\Documents\proteinFP\data\structures\O15151.pdb
REMARK                            x       y       z     vdW  Elec       q    Type
REMARK                         _______ _______ _______ _____ _____    ______ ____
ATOM      1  C   UNL     1      25.100  -8.660 301.500  0.00  0.00     0.000 C 
TER 
REMARK  Name = C:\Users\adria\Documents\proteinFP\data\structures\O15151.pdb
REMARK                            x       y       z     vdW  Elec       q    Type
REMARK                         _______ _______ _______ _____ _____    ______ ____
ATOM      1  C   UNL     1      27.860   6.428 303.000  0.00  0.00     0.000 C 
TER 
REMARK  Name = C:\Users\adria\Documents\proteinFP\data\structures\O15151.pdb
REMARK                            x       y       z     vdW  Elec       q    Type
REMARK                         _______ _______ _______ _____ _____    ______ ____
ATOM      1  C   UNL     1      12.640   6.428 304.500  0.00  0.00     0.000 C 
TER 
REMARK  Name = C:\Users\adria\Documents\proteinFP\data\structures\O15151.pdb
REMARK                            x       y       z     vdW  Elec       q    Type
REMARK                         _______ _______ _______ _____ _____    ______ ____
ATOM      1  C   UNL     1      15.400  -8.660 306.000  0.00  0.00     0.000 C 
TER 
REMARK  Name = C:\Users\adria\Documents\proteinFP\data\structures\O15151.pdb
REMARK                            x       y       z     vdW  Elec       q    Type
REMARK                         _______ _______ _______ _____ _____    ______ ____
ATOM      1  C   UNL     1      29.897  -3.420 307.500  0.00  0.00     0.000 C 
TER 
REMARK  Name = C:\Users\adria\Documents\proteinFP\data\structures\O15151.pdb
REMARK                            x       y       z     vdW  Elec       q    Type
REMARK                         _______ _______ _______ _____ _____    ______ ____
ATOM      1  C   UNL     1      22.336   9.848 309.000  0.00  0.00     0.000 C 
TER 
REMARK  Name = C:\Users\adria\Documents\proteinFP\data\structures\O15151.pdb
REMARK                            x       y       z     vdW  Elec       q    Type
REMARK                         _______ _______ _______ _____ _____    ______ ____
ATOM      1  C   UNL     1      10.700   0.000 310.500  0.00  0.00     0.000 C 
TER 
REMARK  Name = C:\Users\adria\Documents\proteinFP\data\structures\O15151.pdb
REMARK                            x       y       z     vdW  Elec       q    Type
REMARK                         _______ _______ _______ _____ _____    ______ ____
ATOM      1  C   UNL     1      22.536  -9.848 312.000  0.00  0.00     0.000 C 
TER 
REMARK  Name = C:\Users\adria\Documents\proteinFP\data\structures\O15151.pdb
REMARK                            x       y       z     vdW  Elec       q    Type
REMARK                         _______ _______ _______ _____ _____    ______ ____
ATOM      1  C   UNL     1      30.297   3.420 313.500  0.00  0.00     0.000 C 
TER 
REMARK  Name = C:\Users\adria\Documents\proteinFP\data\structures\O15151.pdb
REMARK                            x       y       z     vdW  Elec       q    Type
REMARK                         _______ _______ _______ _____ _____    ______ ____
ATOM      1  C   UNL     1      16.000   8.660 315.000  0.00  0.00     0.000 C 
TER 
REMARK  Name = C:\Users\adria\Documents\proteinFP\data\structures\O15151.pdb
REMARK                            x       y       z     vdW  Elec       q    Type
REMARK                         _______ _______ _______ _____ _____    ______ ____
ATOM      1  C   UNL     1      13.440  -6.428 316.500  0.00  0.00     0.000 C 
TER 
REMARK  Name = C:\Users\adria\Documents\proteinFP\data\structures\O15151.pdb
REMARK                            x       y       z     vdW  Elec       q    Type
REMARK                         _______ _______ _______ _____ _____    ______ ____
ATOM      1  C   UNL     1      28.860  -6.428 318.000  0.00  0.00     0.000 C 
TER 
REMARK  Name = C:\Users\adria\Documents\proteinFP\data\structures\O15151.pdb
REMARK                            x       y       z     vdW  Elec       q    Type
REMARK                         _______ _______ _______ _____ _____    ______ ____
ATOM      1  C   UNL     1      26.300   8.660 319.500  0.00  0.00     0.000 C 
TER 
REMARK  Name = C:\Users\adria\Documents\proteinFP\data\structures\O15151.pdb
REMARK                            x       y       z     vdW  Elec       q    Type
REMARK                         _______ _______ _______ _____ _____    ______ ____
ATOM      1  C   UNL     1      12.003   3.420 321.000  0.00  0.00     0.000 C 
TER 
REMARK  Name = C:\Users\adria\Documents\proteinFP\data\structures\O15151.pdb
REMARK                            x       y       z     vdW  Elec       q    Type
REMARK                         _______ _______ _______ _____ _____    ______ ____
ATOM      1  C   UNL     1      19.764  -9.848 322.500  0.00  0.00     0.000 C 
TER 
REMARK  Name = C:\Users\adria\Documents\proteinFP\data\structures\O15151.pdb
REMARK                            x       y       z     vdW  Elec       q    Type
REMARK                         _______ _______ _______ _____ _____    ______ ____
ATOM      1  C   UNL     1      31.600   0.000 324.000  0.00  0.00     0.000 C 
TER 
REMARK  Name = C:\Users\adria\Documents\proteinFP\data\structures\O15151.pdb
REMARK                            x       y       z     vdW  Elec       q    Type
REMARK                         _______ _______ _______ _____ _____    ______ ____
ATOM      1  C   UNL     1      19.964   9.848 325.500  0.00  0.00     0.000 C 
TER 
REMARK  Name = C:\Users\adria\Documents\proteinFP\data\structures\O15151.pdb
REMARK                            x       y       z     vdW  Elec       q    Type
REMARK                         _______ _______ _______ _____ _____    ______ ____
ATOM      1  C   UNL     1      12.403  -3.420 327.000  0.00  0.00     0.000 C 
TER 
REMARK  Name = C:\Users\adria\Documents\proteinFP\data\structures\O15151.pdb
REMARK                            x       y       z     vdW  Elec       q    Type
REMARK                         _______ _______ _______ _____ _____    ______ ____
ATOM      1  C   UNL     1      26.900  -8.660 328.500  0.00  0.00     0.000 C 
TER 
REMARK  Name = C:\Users\adria\Documents\proteinFP\data\structures\O15151.pdb
REMARK                            x       y       z     vdW  Elec       q    Type
REMARK                         _______ _______ _______ _____ _____    ______ ____
ATOM      1  C   UNL     1      29.660   6.428 330.000  0.00  0.00     0.000 C 
TER 
REMARK  Name = C:\Users\adria\Documents\proteinFP\data\structures\O15151.pdb
REMARK                            x       y       z     vdW  Elec       q    Type
REMARK                         _______ _______ _______ _____ _____    ______ ____
ATOM      1  C   UNL     1      14.440   6.428 331.500  0.00  0.00     0.000 C 
TER 
REMARK  Name = C:\Users\adria\Documents\proteinFP\data\structures\O15151.pdb
REMARK                            x       y       z     vdW  Elec       q    Type
REMARK                         _______ _______ _______ _____ _____    ______ ____
ATOM      1  C   UNL     1      17.200  -8.660 333.000  0.00  0.00     0.000 C 
TER 
REMARK  Name = C:\Users\adria\Documents\proteinFP\data\structures\O15151.pdb
REMARK                            x       y       z     vdW  Elec       q    Type
REMARK                         _______ _______ _______ _____ _____    ______ ____
ATOM      1  C   UNL     1      31.697  -3.420 334.500  0.00  0.00     0.000 C 
TER 
REMARK  Name = C:\Users\adria\Documents\proteinFP\data\structures\O15151.pdb
REMARK                            x       y       z     vdW  Elec       q    Type
REMARK                         _______ _______ _______ _____ _____    ______ ____
ATOM      1  C   UNL     1      24.136   9.848 336.000  0.00  0.00     0.000 C 
TER 
REMARK  Name = C:\Users\adria\Documents\proteinFP\data\structures\O15151.pdb
REMARK                            x       y       z     vdW  Elec       q    Type
REMARK                         _______ _______ _______ _____ _____    ______ ____
ATOM      1  C   UNL     1      12.500   0.000 337.500  0.00  0.00     0.000 C 
TER 
REMARK  Name = C:\Users\adria\Documents\proteinFP\data\structures\O15151.pdb
REMARK                            x       y       z     vdW  Elec       q    Type
REMARK                         _______ _______ _______ _____ _____    ______ ____
ATOM      1  C   UNL     1      24.336  -9.848 339.000  0.00  0.00     0.000 C 
TER 
REMARK  Name = C:\Users\adria\Documents\proteinFP\data\structures\O15151.pdb
REMARK                            x       y       z     vdW  Elec       q    Type
REMARK                         _______ _______ _______ _____ _____    ______ ____
ATOM      1  C   UNL     1      32.097   3.420 340.500  0.00  0.00     0.000 C 
TER 
REMARK  Name = C:\Users\adria\Documents\proteinFP\data\structures\O15151.pdb
REMARK                            x       y       z     vdW  Elec       q    Type
REMARK                         _______ _______ _______ _____ _____    ______ ____
ATOM      1  C   UNL     1      17.800   8.660 342.000  0.00  0.00     0.000 C 
TER 
REMARK  Name = C:\Users\adria\Documents\proteinFP\data\structures\O15151.pdb
REMARK                            x       y       z     vdW  Elec       q    Type
REMARK                         _______ _______ _______ _____ _____    ______ ____
ATOM      1  C   UNL     1      15.240  -6.428 343.500  0.00  0.00     0.000 C 
TER 
REMARK  Name = C:\Users\adria\Documents\proteinFP\data\structures\O15151.pdb
REMARK                            x       y       z     vdW  Elec       q    Type
REMARK                         _______ _______ _______ _____ _____    ______ ____
ATOM      1  C   UNL     1      30.660  -6.428 345.000  0.00  0.00     0.000 C 
TER 
REMARK  Name = C:\Users\adria\Documents\proteinFP\data\structures\O15151.pdb
REMARK                            x       y       z     vdW  Elec       q    Type
REMARK                         _______ _______ _______ _____ _____    ______ ____
ATOM      1  C   UNL     1      28.100   8.660 346.500  0.00  0.00     0.000 C 
TER 
REMARK  Name = C:\Users\adria\Documents\proteinFP\data\structures\O15151.pdb
REMARK                            x       y       z     vdW  Elec       q    Type
REMARK                         _______ _______ _______ _____ _____    ______ ____
ATOM      1  C   UNL     1      13.803   3.420 348.000  0.00  0.00     0.000 C 
TER 
REMARK  Name = C:\Users\adria\Documents\proteinFP\data\structures\O15151.pdb
REMARK                            x       y       z     vdW  Elec       q    Type
REMARK                         _______ _______ _______ _____ _____    ______ ____
ATOM      1  C   UNL     1      21.564  -9.848 349.500  0.00  0.00     0.000 C 
TER 
REMARK  Name = C:\Users\adria\Documents\proteinFP\data\structures\O15151.pdb
REMARK                            x       y       z     vdW  Elec       q    Type
REMARK                         _______ _______ _______ _____ _____    ______ ____
ATOM      1  C   UNL     1      33.400   0.000 351.000  0.00  0.00     0.000 C 
TER 
REMARK  Name = C:\Users\adria\Documents\proteinFP\data\structures\O15151.pdb
REMARK                            x       y       z     vdW  Elec       q    Type
REMARK                         _______ _______ _______ _____ _____    ______ ____
ATOM      1  C   UNL     1      21.764   9.848 352.500  0.00  0.00     0.000 C 
TER 
REMARK  Name = C:\Users\adria\Documents\proteinFP\data\structures\O15151.pdb
REMARK                            x       y       z     vdW  Elec       q    Type
REMARK                         _______ _______ _______ _____ _____    ______ ____
ATOM      1  C   UNL     1      14.203  -3.420 354.000  0.00  0.00     0.000 C 
TER 
REMARK  Name = C:\Users\adria\Documents\proteinFP\data\structures\O15151.pdb
REMARK                            x       y       z     vdW  Elec       q    Type
REMARK                         _______ _______ _______ _____ _____    ______ ____
ATOM      1  C   UNL     1      28.700  -8.660 355.500  0.00  0.00     0.000 C 
TER 
REMARK  Name = C:\Users\adria\Documents\proteinFP\data\structures\O15151.pdb
REMARK                            x       y       z     vdW  Elec       q    Type
REMARK                         _______ _______ _______ _____ _____    ______ ____
ATOM      1  C   UNL     1      31.460   6.428 357.000  0.00  0.00     0.000 C 
TER 
REMARK  Name = C:\Users\adria\Documents\proteinFP\data\structures\O15151.pdb
REMARK                            x       y       z     vdW  Elec       q    Type
REMARK                         _______ _______ _______ _____ _____    ______ ____
ATOM      1  C   UNL     1      16.240   6.428 358.500  0.00  0.00     0.000 C 
TER 
REMARK  Name = C:\Users\adria\Documents\proteinFP\data\structures\O15151.pdb
REMARK                            x       y       z     vdW  Elec       q    Type
REMARK                         _______ _______ _______ _____ _____    ______ ____
ATOM      1  C   UNL     1      19.000  -8.660 360.000  0.00  0.00     0.000 C 
TER 
REMARK  Name = C:\Users\adria\Documents\proteinFP\data\structures\O15151.pdb
REMARK                            x       y       z     vdW  Elec       q    Type
REMARK                         _______ _______ _______ _____ _____    ______ ____
ATOM      1  C   UNL     1      33.497  -3.420 361.500  0.00  0.00     0.000 C 
TER 
REMARK  Name = C:\Users\adria\Documents\proteinFP\data\structures\O15151.pdb
REMARK                            x       y       z     vdW  Elec       q    Type
REMARK                         _______ _______ _______ _____ _____    ______ ____
ATOM      1  C   UNL     1      25.936   9.848 363.000  0.00  0.00     0.000 C 
TER 
REMARK  Name = C:\Users\adria\Documents\proteinFP\data\structures\O15151.pdb
REMARK                            x       y       z     vdW  Elec       q    Type
REMARK                         _______ _______ _______ _____ _____    ______ ____
ATOM      1  C   UNL     1      14.300   0.000 364.500  0.00  0.00     0.000 C 
TER 
REMARK  Name = C:\Users\adria\Documents\proteinFP\data\structures\O15151.pdb
REMARK                            x       y       z     vdW  Elec       q    Type
REMARK                         _______ _______ _______ _____ _____    ______ ____
ATOM      1  C   UNL     1      26.136  -9.848 366.000  0.00  0.00     0.000 C 
TER 
REMARK  Name = C:\Users\adria\Documents\proteinFP\data\structures\O15151.pdb
REMARK                            x       y       z     vdW  Elec       q    Type
REMARK                         _______ _______ _______ _____ _____    ______ ____
ATOM      1  C   UNL     1      33.897   3.420 367.500  0.00  0.00     0.000 C 
TER 
REMARK  Name = C:\Users\adria\Documents\proteinFP\data\structures\O15151.pdb
REMARK                            x       y       z     vdW  Elec       q    Type
REMARK                         _______ _______ _______ _____ _____    ______ ____
ATOM      1  C   UNL     1      19.600   8.660 369.000  0.00  0.00     0.000 C 
TER 
REMARK  Name = C:\Users\adria\Documents\proteinFP\data\structures\O15151.pdb
REMARK                            x       y       z     vdW  Elec       q    Type
REMARK                         _______ _______ _______ _____ _____    ______ ____
ATOM      1  C   UNL     1      17.040  -6.428 370.500  0.00  0.00     0.000 C 
TER 
REMARK  Name = C:\Users\adria\Documents\proteinFP\data\structures\O15151.pdb
REMARK                            x       y       z     vdW  Elec       q    Type
REMARK                         _______ _______ _______ _____ _____    ______ ____
ATOM      1  C   UNL     1      32.460  -6.428 372.000  0.00  0.00     0.000 C 
TER 
REMARK  Name = C:\Users\adria\Documents\proteinFP\data\structures\O15151.pdb
REMARK                            x       y       z     vdW  Elec       q    Type
REMARK                         _______ _______ _______ _____ _____    ______ ____
ATOM      1  C   UNL     1      29.900   8.660 373.500  0.00  0.00     0.000 C 
TER 
REMARK  Name = C:\Users\adria\Documents\proteinFP\data\structures\O15151.pdb
REMARK                            x       y       z     vdW  Elec       q    Type
REMARK                         _______ _______ _______ _____ _____    ______ ____
ATOM      1  C   UNL     1      15.603   3.420 375.000  0.00  0.00     0.000 C 
TER 
REMARK  Name = C:\Users\adria\Documents\proteinFP\data\structures\O15151.pdb
REMARK                            x       y       z     vdW  Elec       q    Type
REMARK                         _______ _______ _______ _____ _____    ______ ____
ATOM      1  C   UNL     1      23.364  -9.848 376.500  0.00  0.00     0.000 C 
TER 
REMARK  Name = C:\Users\adria\Documents\proteinFP\data\structures\O15151.pdb
REMARK                            x       y       z     vdW  Elec       q    Type
REMARK                         _______ _______ _______ _____ _____    ______ ____
ATOM      1  C   UNL     1      35.200   0.000 378.000  0.00  0.00     0.000 C 
TER 
REMARK  Name = C:\Users\adria\Documents\proteinFP\data\structures\O15151.pdb
REMARK                            x       y       z     vdW  Elec       q    Type
REMARK                         _______ _______ _______ _____ _____    ______ ____
ATOM      1  C   UNL     1      23.564   9.848 379.500  0.00  0.00     0.000 C 
TER 
REMARK  Name = C:\Users\adria\Documents\proteinFP\data\structures\O15151.pdb
REMARK                            x       y       z     vdW  Elec       q    Type
REMARK                         _______ _______ _______ _____ _____    ______ ____
ATOM      1  C   UNL     1      16.003  -3.420 381.000  0.00  0.00     0.000 C 
TER 
REMARK  Name = C:\Users\adria\Documents\proteinFP\data\structures\O15151.pdb
REMARK                            x       y       z     vdW  Elec       q    Type
REMARK                         _______ _______ _______ _____ _____    ______ ____
ATOM      1  C   UNL     1      30.500  -8.660 382.500  0.00  0.00     0.000 C 
TER 
REMARK  Name = C:\Users\adria\Documents\proteinFP\data\structures\O15151.pdb
REMARK                            x       y       z     vdW  Elec       q    Type
REMARK                         _______ _______ _______ _____ _____    ______ ____
ATOM      1  C   UNL     1      33.260   6.428 384.000  0.00  0.00     0.000 C 
TER 
REMARK  Name = C:\Users\adria\Documents\proteinFP\data\structures\O15151.pdb
REMARK                            x       y       z     vdW  Elec       q    Type
REMARK                         _______ _______ _______ _____ _____    ______ ____
ATOM      1  C   UNL     1      18.040   6.428 385.500  0.00  0.00     0.000 C 
TER 
REMARK  Name = C:\Users\adria\Documents\proteinFP\data\structures\O15151.pdb
REMARK                            x       y       z     vdW  Elec       q    Type
REMARK                         _______ _______ _______ _____ _____    ______ ____
ATOM      1  C   UNL     1      20.800  -8.660 387.000  0.00  0.00     0.000 C 
TER 
REMARK  Name = C:\Users\adria\Documents\proteinFP\data\structures\O15151.pdb
REMARK                            x       y       z     vdW  Elec       q    Type
REMARK                         _______ _______ _______ _____ _____    ______ ____
ATOM      1  C   UNL     1      35.297  -3.420 388.500  0.00  0.00     0.000 C 
TER 
REMARK  Name = C:\Users\adria\Documents\proteinFP\data\structures\O15151.pdb
REMARK                            x       y       z     vdW  Elec       q    Type
REMARK                         _______ _______ _______ _____ _____    ______ ____
ATOM      1  C   UNL     1      27.736   9.848 390.000  0.00  0.00     0.000 C 
TER 
REMARK  Name = C:\Users\adria\Documents\proteinFP\data\structures\O15151.pdb
REMARK                            x       y       z     vdW  Elec       q    Type
REMARK                         _______ _______ _______ _____ _____    ______ ____
ATOM      1  C   UNL     1      16.100   0.000 391.500  0.00  0.00     0.000 C 
TER 
REMARK  Name = C:\Users\adria\Documents\proteinFP\data\structures\O15151.pdb
REMARK                            x       y       z     vdW  Elec       q    Type
REMARK                         _______ _______ _______ _____ _____    ______ ____
ATOM      1  C   UNL     1      27.936  -9.848 393.000  0.00  0.00     0.000 C 
TER 
REMARK  Name = C:\Users\adria\Documents\proteinFP\data\structures\O15151.pdb
REMARK                            x       y       z     vdW  Elec       q    Type
REMARK                         _______ _______ _______ _____ _____    ______ ____
ATOM      1  C   UNL     1      35.697   3.420 394.500  0.00  0.00     0.000 C 
TER 
REMARK  Name = C:\Users\adria\Documents\proteinFP\data\structures\O15151.pdb
REMARK                            x       y       z     vdW  Elec       q    Type
REMARK                         _______ _______ _______ _____ _____    ______ ____
ATOM      1  C   UNL     1      21.400   8.660 396.000  0.00  0.00     0.000 C 
TER 
REMARK  Name = C:\Users\adria\Documents\proteinFP\data\structures\O15151.pdb
REMARK                            x       y       z     vdW  Elec       q    Type
REMARK                         _______ _______ _______ _____ _____    ______ ____
ATOM      1  C   UNL     1      18.840  -6.428 397.500  0.00  0.00     0.000 C 
TER 
REMARK  Name = C:\Users\adria\Documents\proteinFP\data\structures\O15151.pdb
REMARK                            x       y       z     vdW  Elec       q    Type
REMARK                         _______ _______ _______ _____ _____    ______ ____
ATOM      1  C   UNL     1      34.260  -6.428 399.000  0.00  0.00     0.000 C 
TER 
REMARK  Name = C:\Users\adria\Documents\proteinFP\data\structures\O15151.pdb
REMARK                            x       y       z     vdW  Elec       q    Type
REMARK                         _______ _______ _______ _____ _____    ______ ____
ATOM      1  C   UNL     1      31.700   8.660 400.500  0.00  0.00     0.000 C 
TER 
REMARK  Name = C:\Users\adria\Documents\proteinFP\data\structures\O15151.pdb
REMARK                            x       y       z     vdW  Elec       q    Type
REMARK                         _______ _______ _______ _____ _____    ______ ____
ATOM      1  C   UNL     1      17.403   3.420 402.000  0.00  0.00     0.000 C 
TER 
REMARK  Name = C:\Users\adria\Documents\proteinFP\data\structures\O15151.pdb
REMARK                            x       y       z     vdW  Elec       q    Type
REMARK                         _______ _______ _______ _____ _____    ______ ____
ATOM      1  C   UNL     1      25.164  -9.848 403.500  0.00  0.00     0.000 C 
TER 
REMARK  Name = C:\Users\adria\Documents\proteinFP\data\structures\O15151.pdb
REMARK                            x       y       z     vdW  Elec       q    Type
REMARK                         _______ _______ _______ _____ _____    ______ ____
ATOM      1  C   UNL     1      37.000   0.000 405.000  0.00  0.00     0.000 C 
TER 
REMARK  Name = C:\Users\adria\Documents\proteinFP\data\structures\O15151.pdb
REMARK                            x       y       z     vdW  Elec       q    Type
REMARK                         _______ _______ _______ _____ _____    ______ ____
ATOM      1  C   UNL     1      25.364   9.848 406.500  0.00  0.00     0.000 C 
TER 
REMARK  Name = C:\Users\adria\Documents\proteinFP\data\structures\O15151.pdb
REMARK                            x       y       z     vdW  Elec       q    Type
REMARK                         _______ _______ _______ _____ _____    ______ ____
ATOM      1  C   UNL     1      17.803  -3.420 408.000  0.00  0.00     0.000 C 
TER 
REMARK  Name = C:\Users\adria\Documents\proteinFP\data\structures\O15151.pdb
REMARK                            x       y       z     vdW  Elec       q    Type
REMARK                         _______ _______ _______ _____ _____    ______ ____
ATOM      1  C   UNL     1      32.300  -8.660 409.500  0.00  0.00     0.000 C 
TER 
REMARK  Name = C:\Users\adria\Documents\proteinFP\data\structures\O15151.pdb
REMARK                            x       y       z     vdW  Elec       q    Type
REMARK                         _______ _______ _______ _____ _____    ______ ____
ATOM      1  C   UNL     1      35.060   6.428 411.000  0.00  0.00     0.000 C 
TER 
REMARK  Name = C:\Users\adria\Documents\proteinFP\data\structures\O15151.pdb
REMARK                            x       y       z     vdW  Elec       q    Type
REMARK                         _______ _______ _______ _____ _____    ______ ____
ATOM      1  C   UNL     1      19.840   6.428 412.500  0.00  0.00     0.000 C 
TER 
REMARK  Name = C:\Users\adria\Documents\proteinFP\data\structures\O15151.pdb
REMARK                            x       y       z     vdW  Elec       q    Type
REMARK                         _______ _______ _______ _____ _____    ______ ____
ATOM      1  C   UNL     1      22.600  -8.660 414.000  0.00  0.00     0.000 C 
TER 
REMARK  Name = C:\Users\adria\Documents\proteinFP\data\structures\O15151.pdb
REMARK                            x       y       z     vdW  Elec       q    Type
REMARK                         _______ _______ _______ _____ _____    ______ ____
ATOM      1  C   UNL     1      37.097  -3.420 415.500  0.00  0.00     0.000 C 
TER 
REMARK  Name = C:\Users\adria\Documents\proteinFP\data\structures\O15151.pdb
REMARK                            x       y       z     vdW  Elec       q    Type
REMARK                         _______ _______ _______ _____ _____    ______ ____
ATOM      1  C   UNL     1      29.536   9.848 417.000  0.00  0.00     0.000 C 
TER 
REMARK  Name = C:\Users\adria\Documents\proteinFP\data\structures\O15151.pdb
REMARK                            x       y       z     vdW  Elec       q    Type
REMARK                         _______ _______ _______ _____ _____    ______ ____
ATOM      1  C   UNL     1      17.900   0.000 418.500  0.00  0.00     0.000 C 
TER 
REMARK  Name = C:\Users\adria\Documents\proteinFP\data\structures\O15151.pdb
REMARK                            x       y       z     vdW  Elec       q    Type
REMARK                         _______ _______ _______ _____ _____    ______ ____
ATOM      1  C   UNL     1      29.736  -9.848 420.000  0.00  0.00     0.000 C 
TER 
REMARK  Name = C:\Users\adria\Documents\proteinFP\data\structures\O15151.pdb
REMARK                            x       y       z     vdW  Elec       q    Type
REMARK                         _______ _______ _______ _____ _____    ______ ____
ATOM      1  C   UNL     1      37.497   3.420 421.500  0.00  0.00     0.000 C 
TER 
REMARK  Name = C:\Users\adria\Documents\proteinFP\data\structures\O15151.pdb
REMARK                            x       y       z     vdW  Elec       q    Type
REMARK                         _______ _______ _______ _____ _____    ______ ____
ATOM      1  C   UNL     1      23.200   8.660 423.000  0.00  0.00     0.000 C 
TER 
REMARK  Name = C:\Users\adria\Documents\proteinFP\data\structures\O15151.pdb
REMARK                            x       y       z     vdW  Elec       q    Type
REMARK                         _______ _______ _______ _____ _____    ______ ____
ATOM      1  C   UNL     1      20.640  -6.428 424.500  0.00  0.00     0.000 C 
TER 
REMARK  Name = C:\Users\adria\Documents\proteinFP\data\structures\O15151.pdb
REMARK                            x       y       z     vdW  Elec       q    Type
REMARK                         _______ _______ _______ _____ _____    ______ ____
ATOM      1  C   UNL     1      36.060  -6.428 426.000  0.00  0.00     0.000 C 
TER 
REMARK  Name = C:\Users\adria\Documents\proteinFP\data\structures\O15151.pdb
REMARK                            x       y       z     vdW  Elec       q    Type
REMARK                         _______ _______ _______ _____ _____    ______ ____
ATOM      1  C   UNL     1      33.500   8.660 427.500  0.00  0.00     0.000 C 
TER 
REMARK  Name = C:\Users\adria\Documents\proteinFP\data\structures\O15151.pdb
REMARK                            x       y       z     vdW  Elec       q    Type
REMARK                         _______ _______ _______ _____ _____    ______ ____
ATOM      1  C   UNL     1      19.203   3.420 429.000  0.00  0.00     0.000 C 
TER 
REMARK  Name = C:\Users\adria\Documents\proteinFP\data\structures\O15151.pdb
REMARK                            x       y       z     vdW  Elec       q    Type
REMARK                         _______ _______ _______ _____ _____    ______ ____
ATOM      1  C   UNL     1      26.964  -9.848 430.500  0.00  0.00     0.000 C 
TER 
REMARK  Name = C:\Users\adria\Documents\proteinFP\data\structures\O15151.pdb
REMARK                            x       y       z     vdW  Elec       q    Type
REMARK                         _______ _______ _______ _____ _____    ______ ____
ATOM      1  C   UNL     1      38.800   0.000 432.000  0.00  0.00     0.000 C 
TER 
REMARK  Name = C:\Users\adria\Documents\proteinFP\data\structures\O15151.pdb
REMARK                            x       y       z     vdW  Elec       q    Type
REMARK                         _______ _______ _______ _____ _____    ______ ____
ATOM      1  C   UNL     1      27.164   9.848 433.500  0.00  0.00     0.000 C 
TER 
REMARK  Name = C:\Users\adria\Documents\proteinFP\data\structures\O15151.pdb
REMARK                            x       y       z     vdW  Elec       q    Type
REMARK                         _______ _______ _______ _____ _____    ______ ____
ATOM      1  C   UNL     1      19.603  -3.420 435.000  0.00  0.00     0.000 C 
TER 
REMARK  Name = C:\Users\adria\Documents\proteinFP\data\structures\O15151.pdb
REMARK                            x       y       z     vdW  Elec       q    Type
REMARK                         _______ _______ _______ _____ _____    ______ ____
ATOM      1  C   UNL     1      34.100  -8.660 436.500  0.00  0.00     0.000 C 
TER 
REMARK  Name = C:\Users\adria\Documents\proteinFP\data\structures\O15151.pdb
REMARK                            x       y       z     vdW  Elec       q    Type
REMARK                         _______ _______ _______ _____ _____    ______ ____
ATOM      1  C   UNL     1      36.860   6.428 438.000  0.00  0.00     0.000 C 
TER 
REMARK  Name = C:\Users\adria\Documents\proteinFP\data\structures\O15151.pdb
REMARK                            x       y       z     vdW  Elec       q    Type
REMARK                         _______ _______ _______ _____ _____    ______ ____
ATOM      1  C   UNL     1      21.640   6.428 439.500  0.00  0.00     0.000 C 
TER 
REMARK  Name = C:\Users\adria\Documents\proteinFP\data\structures\O15151.pdb
REMARK                            x       y       z     vdW  Elec       q    Type
REMARK                         _______ _______ _______ _____ _____    ______ ____
ATOM      1  C   UNL     1      24.400  -8.660 441.000  0.00  0.00     0.000 C 
TER 
REMARK  Name = C:\Users\adria\Documents\proteinFP\data\structures\O15151.pdb
REMARK                            x       y       z     vdW  Elec       q    Type
REMARK                         _______ _______ _______ _____ _____    ______ ____
ATOM      1  C   UNL     1      38.897  -3.420 442.500  0.00  0.00     0.000 C 
TER 
REMARK  Name = C:\Users\adria\Documents\proteinFP\data\structures\O15151.pdb
REMARK                            x       y       z     vdW  Elec       q    Type
REMARK                         _______ _______ _______ _____ _____    ______ ____
ATOM      1  C   UNL     1      31.336   9.848 444.000  0.00  0.00     0.000 C 
TER 
REMARK  Name = C:\Users\adria\Documents\proteinFP\data\structures\O15151.pdb
REMARK                            x       y       z     vdW  Elec       q    Type
REMARK                         _______ _______ _______ _____ _____    ______ ____
ATOM      1  C   UNL     1      19.700   0.000 445.500  0.00  0.00     0.000 C 
TER 
REMARK  Name = C:\Users\adria\Documents\proteinFP\data\structures\O15151.pdb
REMARK                            x       y       z     vdW  Elec       q    Type
REMARK                         _______ _______ _______ _____ _____    ______ ____
ATOM      1  C   UNL     1      31.536  -9.848 447.000  0.00  0.00     0.000 C 
TER 
REMARK  Name = C:\Users\adria\Documents\proteinFP\data\structures\O15151.pdb
REMARK                            x       y       z     vdW  Elec       q    Type
REMARK                         _______ _______ _______ _____ _____    ______ ____
ATOM      1  C   UNL     1      39.297   3.420 448.500  0.00  0.00     0.000 C 
TER 
REMARK  Name = C:\Users\adria\Documents\proteinFP\data\structures\O15151.pdb
REMARK                            x       y       z     vdW  Elec       q    Type
REMARK                         _______ _______ _______ _____ _____    ______ ____
ATOM      1  C   UNL     1      25.000   8.660 450.000  0.00  0.00     0.000 C 
TER 
REMARK  Name = C:\Users\adria\Documents\proteinFP\data\structures\O15151.pdb
REMARK                            x       y       z     vdW  Elec       q    Type
REMARK                         _______ _______ _______ _____ _____    ______ ____
ATOM      1  C   UNL     1      22.440  -6.428 451.500  0.00  0.00     0.000 C 
TER 
REMARK  Name = C:\Users\adria\Documents\proteinFP\data\structures\O15151.pdb
REMARK                            x       y       z     vdW  Elec       q    Type
REMARK                         _______ _______ _______ _____ _____    ______ ____
ATOM      1  C   UNL     1      37.860  -6.428 453.000  0.00  0.00     0.000 C 
TER 
REMARK  Name = C:\Users\adria\Documents\proteinFP\data\structures\O15151.pdb
REMARK                            x       y       z     vdW  Elec       q    Type
REMARK                         _______ _______ _______ _____ _____    ______ ____
ATOM      1  C   UNL     1      35.300   8.660 454.500  0.00  0.00     0.000 C 
TER 
REMARK  Name = C:\Users\adria\Documents\proteinFP\data\structures\O15151.pdb
REMARK                            x       y       z     vdW  Elec       q    Type
REMARK                         _______ _______ _______ _____ _____    ______ ____
ATOM      1  C   UNL     1      21.003   3.420 456.000  0.00  0.00     0.000 C 
TER 
REMARK  Name = C:\Users\adria\Documents\proteinFP\data\structures\O15151.pdb
REMARK                            x       y       z     vdW  Elec       q    Type
REMARK                         _______ _______ _______ _____ _____    ______ ____
ATOM      1  C   UNL     1      28.764  -9.848 457.500  0.00  0.00     0.000 C 
TER 
REMARK  Name = C:\Users\adria\Documents\proteinFP\data\structures\O15151.pdb
REMARK                            x       y       z     vdW  Elec       q    Type
REMARK                         _______ _______ _______ _____ _____    ______ ____
ATOM      1  C   UNL     1      40.600   0.000 459.000  0.00  0.00     0.000 C 
TER 
REMARK  Name = C:\Users\adria\Documents\proteinFP\data\structures\O15151.pdb
REMARK                            x       y       z     vdW  Elec       q    Type
REMARK                         _______ _______ _______ _____ _____    ______ ____
ATOM      1  C   UNL     1      28.964   9.848 460.500  0.00  0.00     0.000 C 
TER 
REMARK  Name = C:\Users\adria\Documents\proteinFP\data\structures\O15151.pdb
REMARK                            x       y       z     vdW  Elec       q    Type
REMARK                         _______ _______ _______ _____ _____    ______ ____
ATOM      1  C   UNL     1      21.403  -3.420 462.000  0.00  0.00     0.000 C 
TER 
REMARK  Name = C:\Users\adria\Documents\proteinFP\data\structures\O15151.pdb
REMARK                            x       y       z     vdW  Elec       q    Type
REMARK                         _______ _______ _______ _____ _____    ______ ____
ATOM      1  C   UNL     1      35.900  -8.660 463.500  0.00  0.00     0.000 C 
TER 
REMARK  Name = C:\Users\adria\Documents\proteinFP\data\structures\O15151.pdb
REMARK                            x       y       z     vdW  Elec       q    Type
REMARK                         _______ _______ _______ _____ _____    ______ ____
ATOM      1  C   UNL     1      38.660   6.428 465.000  0.00  0.00     0.000 C 
TER 
REMARK  Name = C:\Users\adria\Documents\proteinFP\data\structures\O15151.pdb
REMARK                            x       y       z     vdW  Elec       q    Type
REMARK                         _______ _______ _______ _____ _____    ______ ____
ATOM      1  C   UNL     1      23.440   6.428 466.500  0.00  0.00     0.000 C 
TER 
REMARK  Name = C:\Users\adria\Documents\proteinFP\data\structures\O15151.pdb
REMARK                            x       y       z     vdW  Elec       q    Type
REMARK                         _______ _______ _______ _____ _____    ______ ____
ATOM      1  C   UNL     1      26.200  -8.660 468.000  0.00  0.00     0.000 C 
TER 
REMARK  Name = C:\Users\adria\Documents\proteinFP\data\structures\O15151.pdb
REMARK                            x       y       z     vdW  Elec       q    Type
REMARK                         _______ _______ _______ _____ _____    ______ ____
ATOM      1  C   UNL     1      40.697  -3.420 469.500  0.00  0.00     0.000 C 
TER 
REMARK  Name = C:\Users\adria\Documents\proteinFP\data\structures\O15151.pdb
REMARK                            x       y       z     vdW  Elec       q    Type
REMARK                         _______ _______ _______ _____ _____    ______ ____
ATOM      1  C   UNL     1      33.136   9.848 471.000  0.00  0.00     0.000 C 
TER 
REMARK  Name = C:\Users\adria\Documents\proteinFP\data\structures\O15151.pdb
REMARK                            x       y       z     vdW  Elec       q    Type
REMARK                         _______ _______ _______ _____ _____    ______ ____
ATOM      1  C   UNL     1      21.500   0.000 472.500  0.00  0.00     0.000 C 
TER 
REMARK  Name = C:\Users\adria\Documents\proteinFP\data\structures\O15151.pdb
REMARK                            x       y       z     vdW  Elec       q    Type
REMARK                         _______ _______ _______ _____ _____    ______ ____
ATOM      1  C   UNL     1      33.336  -9.848 474.000  0.00  0.00     0.000 C 
TER 
REMARK  Name = C:\Users\adria\Documents\proteinFP\data\structures\O15151.pdb
REMARK                            x       y       z     vdW  Elec       q    Type
REMARK                         _______ _______ _______ _____ _____    ______ ____
ATOM      1  C   UNL     1      41.097   3.420 475.500  0.00  0.00     0.000 C 
TER 
REMARK  Name = C:\Users\adria\Documents\proteinFP\data\structures\O15151.pdb
REMARK                            x       y       z     vdW  Elec       q    Type
REMARK                         _______ _______ _______ _____ _____    ______ ____
ATOM      1  C   UNL     1      26.800   8.660 477.000  0.00  0.00     0.000 C 
TER 
REMARK  Name = C:\Users\adria\Documents\proteinFP\data\structures\O15151.pdb
REMARK                            x       y       z     vdW  Elec       q    Type
REMARK                         _______ _______ _______ _____ _____    ______ ____
ATOM      1  C   UNL     1      24.240  -6.428 478.500  0.00  0.00     0.000 C 
TER 
REMARK  Name = C:\Users\adria\Documents\proteinFP\data\structures\O15151.pdb
REMARK                            x       y       z     vdW  Elec       q    Type
REMARK                         _______ _______ _______ _____ _____    ______ ____
ATOM      1  C   UNL     1      39.660  -6.428 480.000  0.00  0.00     0.000 C 
TER 
REMARK  Name = C:\Users\adria\Documents\proteinFP\data\structures\O15151.pdb
REMARK                            x       y       z     vdW  Elec       q    Type
REMARK                         _______ _______ _______ _____ _____    ______ ____
ATOM      1  C   UNL     1      37.100   8.660 481.500  0.00  0.00     0.000 C 
TER 
REMARK  Name = C:\Users\adria\Documents\proteinFP\data\structures\O15151.pdb
REMARK                            x       y       z     vdW  Elec       q    Type
REMARK                         _______ _______ _______ _____ _____    ______ ____
ATOM      1  C   UNL     1      22.803   3.420 483.000  0.00  0.00     0.000 C 
TER 
REMARK  Name = C:\Users\adria\Documents\proteinFP\data\structures\O15151.pdb
REMARK                            x       y       z     vdW  Elec       q    Type
REMARK                         _______ _______ _______ _____ _____    ______ ____
ATOM      1  C   UNL     1      30.564  -9.848 484.500  0.00  0.00     0.000 C 
TER 
REMARK  Name = C:\Users\adria\Documents\proteinFP\data\structures\O15151.pdb
REMARK                            x       y       z     vdW  Elec       q    Type
REMARK                         _______ _______ _______ _____ _____    ______ ____
ATOM      1  C   UNL     1      42.400   0.000 486.000  0.00  0.00     0.000 C 
TER 
REMARK  Name = C:\Users\adria\Documents\proteinFP\data\structures\O15151.pdb
REMARK                            x       y       z     vdW  Elec       q    Type
REMARK                         _______ _______ _______ _____ _____    ______ ____
ATOM      1  C   UNL     1      30.764   9.848 487.500  0.00  0.00     0.000 C 
TER 
REMARK  Name = C:\Users\adria\Documents\proteinFP\data\structures\O15151.pdb
REMARK                            x       y       z     vdW  Elec       q    Type
REMARK                         _______ _______ _______ _____ _____    ______ ____
ATOM      1  C   UNL     1      23.203  -3.420 489.000  0.00  0.00     0.000 C 
TER 
REMARK  Name = C:\Users\adria\Documents\proteinFP\data\structures\O15151.pdb
REMARK                            x       y       z     vdW  Elec       q    Type
REMARK                         _______ _______ _______ _____ _____    ______ ____
ATOM      1  C   UNL     1      37.700  -8.660 490.500  0.00  0.00     0.000 C 
TER 
REMARK  Name = C:\Users\adria\Documents\proteinFP\data\structures\O15151.pdb
REMARK                            x       y       z     vdW  Elec       q    Type
REMARK                         _______ _______ _______ _____ _____    ______ ____
ATOM      1  C   UNL     1      40.460   6.428 492.000  0.00  0.00     0.000 C 
TER 
REMARK  Name = C:\Users\adria\Documents\proteinFP\data\structures\O15151.pdb
REMARK                            x       y       z     vdW  Elec       q    Type
REMARK                         _______ _______ _______ _____ _____    ______ ____
ATOM      1  C   UNL     1      25.240   6.428 493.500  0.00  0.00     0.000 C 
TER 
REMARK  Name = C:\Users\adria\Documents\proteinFP\data\structures\O15151.pdb
REMARK                            x       y       z     vdW  Elec       q    Type
REMARK                         _______ _______ _______ _____ _____    ______ ____
ATOM      1  C   UNL     1      28.000  -8.660 495.000  0.00  0.00     0.000 C 
TER 
REMARK  Name = C:\Users\adria\Documents\proteinFP\data\structures\O15151.pdb
REMARK                            x       y       z     vdW  Elec       q    Type
REMARK                         _______ _______ _______ _____ _____    ______ ____
ATOM      1  C   UNL     1      42.497  -3.420 496.500  0.00  0.00     0.000 C 
TER 
REMARK  Name = C:\Users\adria\Documents\proteinFP\data\structures\O15151.pdb
REMARK                            x       y       z     vdW  Elec       q    Type
REMARK                         _______ _______ _______ _____ _____    ______ ____
ATOM      1  C   UNL     1      34.936   9.848 498.000  0.00  0.00     0.000 C 
TER 
REMARK  Name = C:\Users\adria\Documents\proteinFP\data\structures\O15151.pdb
REMARK                            x       y       z     vdW  Elec       q    Type
REMARK                         _______ _______ _______ _____ _____    ______ ____
ATOM      1  C   UNL     1      23.300   0.000 499.500  0.00  0.00     0.000 C 
TER 
REMARK  Name = C:\Users\adria\Documents\proteinFP\data\structures\O15151.pdb
REMARK                            x       y       z     vdW  Elec       q    Type
REMARK                         _______ _______ _______ _____ _____    ______ ____
ATOM      1  C   UNL     1      35.136  -9.848 501.000  0.00  0.00     0.000 C 
TER 
REMARK  Name = C:\Users\adria\Documents\proteinFP\data\structures\O15151.pdb
REMARK                            x       y       z     vdW  Elec       q    Type
REMARK                         _______ _______ _______ _____ _____    ______ ____
ATOM      1  C   UNL     1      42.897   3.420 502.500  0.00  0.00     0.000 C 
TER 
REMARK  Name = C:\Users\adria\Documents\proteinFP\data\structures\O15151.pdb
REMARK                            x       y       z     vdW  Elec       q    Type
REMARK                         _______ _______ _______ _____ _____    ______ ____
ATOM      1  C   UNL     1      28.600   8.660 504.000  0.00  0.00     0.000 C 
TER 
REMARK  Name = C:\Users\adria\Documents\proteinFP\data\structures\O15151.pdb
REMARK                            x       y       z     vdW  Elec       q    Type
REMARK                         _______ _______ _______ _____ _____    ______ ____
ATOM      1  C   UNL     1      26.040  -6.428 505.500  0.00  0.00     0.000 C 
TER 
REMARK  Name = C:\Users\adria\Documents\proteinFP\data\structures\O15151.pdb
REMARK                            x       y       z     vdW  Elec       q    Type
REMARK                         _______ _______ _______ _____ _____    ______ ____
ATOM      1  C   UNL     1      41.460  -6.428 507.000  0.00  0.00     0.000 C 
TER 
REMARK  Name = C:\Users\adria\Documents\proteinFP\data\structures\O15151.pdb
REMARK                            x       y       z     vdW  Elec       q    Type
REMARK                         _______ _______ _______ _____ _____    ______ ____
ATOM      1  C   UNL     1      38.900   8.660 508.500  0.00  0.00     0.000 C 
TER 
REMARK  Name = C:\Users\adria\Documents\proteinFP\data\structures\O15151.pdb
REMARK                            x       y       z     vdW  Elec       q    Type
REMARK                         _______ _______ _______ _____ _____    ______ ____
ATOM      1  C   UNL     1      24.603   3.420 510.000  0.00  0.00     0.000 C 
TER 
REMARK  Name = C:\Users\adria\Documents\proteinFP\data\structures\O15151.pdb
REMARK                            x       y       z     vdW  Elec       q    Type
REMARK                         _______ _______ _______ _____ _____    ______ ____
ATOM      1  C   UNL     1      32.364  -9.848 511.500  0.00  0.00     0.000 C 
TER 
REMARK  Name = C:\Users\adria\Documents\proteinFP\data\structures\O15151.pdb
REMARK                            x       y       z     vdW  Elec       q    Type
REMARK                         _______ _______ _______ _____ _____    ______ ____
ATOM      1  C   UNL     1      44.200   0.000 513.000  0.00  0.00     0.000 C 
TER 
REMARK  Name = C:\Users\adria\Documents\proteinFP\data\structures\O15151.pdb
REMARK                            x       y       z     vdW  Elec       q    Type
REMARK                         _______ _______ _______ _____ _____    ______ ____
ATOM      1  C   UNL     1      32.564   9.848 514.500  0.00  0.00     0.000 C 
TER 
REMARK  Name = C:\Users\adria\Documents\proteinFP\data\structures\O15151.pdb
REMARK                            x       y       z     vdW  Elec       q    Type
REMARK                         _______ _______ _______ _____ _____    ______ ____
ATOM      1  C   UNL     1      25.003  -3.420 516.000  0.00  0.00     0.000 C 
TER 
REMARK  Name = C:\Users\adria\Documents\proteinFP\data\structures\O15151.pdb
REMARK                            x       y       z     vdW  Elec       q    Type
REMARK                         _______ _______ _______ _____ _____    ______ ____
ATOM      1  C   UNL     1      39.500  -8.660 517.500  0.00  0.00     0.000 C 
TER 
REMARK  Name = C:\Users\adria\Documents\proteinFP\data\structures\O15151.pdb
REMARK                            x       y       z     vdW  Elec       q    Type
REMARK                         _______ _______ _______ _____ _____    ______ ____
ATOM      1  C   UNL     1      42.260   6.428 519.000  0.00  0.00     0.000 C 
TER 
REMARK  Name = C:\Users\adria\Documents\proteinFP\data\structures\O15151.pdb
REMARK                            x       y       z     vdW  Elec       q    Type
REMARK                         _______ _______ _______ _____ _____    ______ ____
ATOM      1  C   UNL     1      27.040   6.428 520.500  0.00  0.00     0.000 C 
TER 
REMARK  Name = C:\Users\adria\Documents\proteinFP\data\structures\O15151.pdb
REMARK                            x       y       z     vdW  Elec       q    Type
REMARK                         _______ _______ _______ _____ _____    ______ ____
ATOM      1  C   UNL     1      29.800  -8.660 522.000  0.00  0.00     0.000 C 
TER 
REMARK  Name = C:\Users\adria\Documents\proteinFP\data\structures\O15151.pdb
REMARK                            x       y       z     vdW  Elec       q    Type
REMARK                         _______ _______ _______ _____ _____    ______ ____
ATOM      1  C   UNL     1      44.297  -3.420 523.500  0.00  0.00     0.000 C 
TER 
REMARK  Name = C:\Users\adria\Documents\proteinFP\data\structures\O15151.pdb
REMARK                            x       y       z     vdW  Elec       q    Type
REMARK                         _______ _______ _______ _____ _____    ______ ____
ATOM      1  C   UNL     1      36.736   9.848 525.000  0.00  0.00     0.000 C 
TER 
REMARK  Name = C:\Users\adria\Documents\proteinFP\data\structures\O15151.pdb
REMARK                            x       y       z     vdW  Elec       q    Type
REMARK                         _______ _______ _______ _____ _____    ______ ____
ATOM      1  C   UNL     1      25.100   0.000 526.500  0.00  0.00     0.000 C 
TER 
REMARK  Name = C:\Users\adria\Documents\proteinFP\data\structures\O15151.pdb
REMARK                            x       y       z     vdW  Elec       q    Type
REMARK                         _______ _______ _______ _____ _____    ______ ____
ATOM      1  C   UNL     1      36.936  -9.848 528.000  0.00  0.00     0.000 C 
TER 
REMARK  Name = C:\Users\adria\Documents\proteinFP\data\structures\O15151.pdb
REMARK                            x       y       z     vdW  Elec       q    Type
REMARK                         _______ _______ _______ _____ _____    ______ ____
ATOM      1  C   UNL     1      44.697   3.420 529.500  0.00  0.00     0.000 C 
TER 
REMARK  Name = C:\Users\adria\Documents\proteinFP\data\structures\O15151.pdb
REMARK                            x       y       z     vdW  Elec       q    Type
REMARK                         _______ _______ _______ _____ _____    ______ ____
ATOM      1  C   UNL     1      30.400   8.660 531.000  0.00  0.00     0.000 C 
TER 
REMARK  Name = C:\Users\adria\Documents\proteinFP\data\structures\O15151.pdb
REMARK                            x       y       z     vdW  Elec       q    Type
REMARK                         _______ _______ _______ _____ _____    ______ ____
ATOM      1  C   UNL     1      27.840  -6.428 532.500  0.00  0.00     0.000 C 
TER 
REMARK  Name = C:\Users\adria\Documents\proteinFP\data\structures\O15151.pdb
REMARK                            x       y       z     vdW  Elec       q    Type
REMARK                         _______ _______ _______ _____ _____    ______ ____
ATOM      1  C   UNL     1      43.260  -6.428 534.000  0.00  0.00     0.000 C 
TER 
REMARK  Name = C:\Users\adria\Documents\proteinFP\data\structures\O15151.pdb
REMARK                            x       y       z     vdW  Elec       q    Type
REMARK                         _______ _______ _______ _____ _____    ______ ____
ATOM      1  C   UNL     1      40.700   8.660 535.500  0.00  0.00     0.000 C 
TER 
REMARK  Name = C:\Users\adria\Documents\proteinFP\data\structures\O15151.pdb
REMARK                            x       y       z     vdW  Elec       q    Type
REMARK                         _______ _______ _______ _____ _____    ______ ____
ATOM      1  C   UNL     1      26.403   3.420 537.000  0.00  0.00     0.000 C 
TER 
REMARK  Name = C:\Users\adria\Documents\proteinFP\data\structures\O15151.pdb
REMARK                            x       y       z     vdW  Elec       q    Type
REMARK                         _______ _______ _______ _____ _____    ______ ____
ATOM      1  C   UNL     1      34.164  -9.848 538.500  0.00  0.00     0.000 C 
TER 
REMARK  Name = C:\Users\adria\Documents\proteinFP\data\structures\O15151.pdb
REMARK                            x       y       z     vdW  Elec       q    Type
REMARK                         _______ _______ _______ _____ _____    ______ ____
ATOM      1  C   UNL     1      46.000   0.000 540.000  0.00  0.00     0.000 C 
TER 
REMARK  Name = C:\Users\adria\Documents\proteinFP\data\structures\O15151.pdb
REMARK                            x       y       z     vdW  Elec       q    Type
REMARK                         _______ _______ _______ _____ _____    ______ ____
ATOM      1  C   UNL     1      34.364   9.848 541.500  0.00  0.00     0.000 C 
TER 
REMARK  Name = C:\Users\adria\Documents\proteinFP\data\structures\O15151.pdb
REMARK                            x       y       z     vdW  Elec       q    Type
REMARK                         _______ _______ _______ _____ _____    ______ ____
ATOM      1  C   UNL     1      26.803  -3.420 543.000  0.00  0.00     0.000 C 
TER 
REMARK  Name = C:\Users\adria\Documents\proteinFP\data\structures\O15151.pdb
REMARK                            x       y       z     vdW  Elec       q    Type
REMARK                         _______ _______ _______ _____ _____    ______ ____
ATOM      1  C   UNL     1      41.300  -8.660 544.500  0.00  0.00     0.000 C 
TER 
REMARK  Name = C:\Users\adria\Documents\proteinFP\data\structures\O15151.pdb
REMARK                            x       y       z     vdW  Elec       q    Type
REMARK                         _______ _______ _______ _____ _____    ______ ____
ATOM      1  C   UNL     1      44.060   6.428 546.000  0.00  0.00     0.000 C 
TER 
REMARK  Name = C:\Users\adria\Documents\proteinFP\data\structures\O15151.pdb
REMARK                            x       y       z     vdW  Elec       q    Type
REMARK                         _______ _______ _______ _____ _____    ______ ____
ATOM      1  C   UNL     1      28.840   6.428 547.500  0.00  0.00     0.000 C 
TER 
REMARK  Name = C:\Users\adria\Documents\proteinFP\data\structures\O15151.pdb
REMARK                            x       y       z     vdW  Elec       q    Type
REMARK                         _______ _______ _______ _____ _____    ______ ____
ATOM      1  C   UNL     1      31.600  -8.660 549.000  0.00  0.00     0.000 C 
TER 
REMARK  Name = C:\Users\adria\Documents\proteinFP\data\structures\O15151.pdb
REMARK                            x       y       z     vdW  Elec       q    Type
REMARK                         _______ _______ _______ _____ _____    ______ ____
ATOM      1  C   UNL     1      46.097  -3.420 550.500  0.00  0.00     0.000 C 
TER 
REMARK  Name = C:\Users\adria\Documents\proteinFP\data\structures\O15151.pdb
REMARK                            x       y       z     vdW  Elec       q    Type
REMARK                         _______ _______ _______ _____ _____    ______ ____
ATOM      1  C   UNL     1      38.536   9.848 552.000  0.00  0.00     0.000 C 
TER 
REMARK  Name = C:\Users\adria\Documents\proteinFP\data\structures\O15151.pdb
REMARK                            x       y       z     vdW  Elec       q    Type
REMARK                         _______ _______ _______ _____ _____    ______ ____
ATOM      1  C   UNL     1      26.900   0.000 553.500  0.00  0.00     0.000 C 
TER 
REMARK  Name = C:\Users\adria\Documents\proteinFP\data\structures\O15151.pdb
REMARK                            x       y       z     vdW  Elec       q    Type
REMARK                         _______ _______ _______ _____ _____    ______ ____
ATOM      1  C   UNL     1      38.736  -9.848 555.000  0.00  0.00     0.000 C 
TER 
REMARK  Name = C:\Users\adria\Documents\proteinFP\data\structures\O15151.pdb
REMARK                            x       y       z     vdW  Elec       q    Type
REMARK                         _______ _______ _______ _____ _____    ______ ____
ATOM      1  C   UNL     1      46.497   3.420 556.500  0.00  0.00     0.000 C 
TER 
REMARK  Name = C:\Users\adria\Documents\proteinFP\data\structures\O15151.pdb
REMARK                            x       y       z     vdW  Elec       q    Type
REMARK                         _______ _______ _______ _____ _____    ______ ____
ATOM      1  C   UNL     1      32.200   8.660 558.000  0.00  0.00     0.000 C 
TER 
REMARK  Name = C:\Users\adria\Documents\proteinFP\data\structures\O15151.pdb
REMARK                            x       y       z     vdW  Elec       q    Type
REMARK                         _______ _______ _______ _____ _____    ______ ____
ATOM      1  C   UNL     1      29.640  -6.428 559.500  0.00  0.00     0.000 C 
TER 
REMARK  Name = C:\Users\adria\Documents\proteinFP\data\structures\O15151.pdb
REMARK                            x       y       z     vdW  Elec       q    Type
REMARK                         _______ _______ _______ _____ _____    ______ ____
ATOM      1  C   UNL     1      45.060  -6.428 561.000  0.00  0.00     0.000 C 
TER 
REMARK  Name = C:\Users\adria\Documents\proteinFP\data\structures\O15151.pdb
REMARK                            x       y       z     vdW  Elec       q    Type
REMARK                         _______ _______ _______ _____ _____    ______ ____
ATOM      1  C   UNL     1      42.500   8.660 562.500  0.00  0.00     0.000 C 
TER 
REMARK  Name = C:\Users\adria\Documents\proteinFP\data\structures\O15151.pdb
REMARK                            x       y       z     vdW  Elec       q    Type
REMARK                         _______ _______ _______ _____ _____    ______ ____
ATOM      1  C   UNL     1      28.203   3.420 564.000  0.00  0.00     0.000 C 
TER 
REMARK  Name = C:\Users\adria\Documents\proteinFP\data\structures\O15151.pdb
REMARK                            x       y       z     vdW  Elec       q    Type
REMARK                         _______ _______ _______ _____ _____    ______ ____
ATOM      1  C   UNL     1      35.964  -9.848 565.500  0.00  0.00     0.000 C 
TER 
REMARK  Name = C:\Users\adria\Documents\proteinFP\data\structures\O15151.pdb
REMARK                            x       y       z     vdW  Elec       q    Type
REMARK                         _______ _______ _______ _____ _____    ______ ____
ATOM      1  C   UNL     1      47.800   0.000 567.000  0.00  0.00     0.000 C 
TER 
REMARK  Name = C:\Users\adria\Documents\proteinFP\data\structures\O15151.pdb
REMARK                            x       y       z     vdW  Elec       q    Type
REMARK                         _______ _______ _______ _____ _____    ______ ____
ATOM      1  C   UNL     1      36.164   9.848 568.500  0.00  0.00     0.000 C 
TER 
REMARK  Name = C:\Users\adria\Documents\proteinFP\data\structures\O15151.pdb
REMARK                            x       y       z     vdW  Elec       q    Type
REMARK                         _______ _______ _______ _____ _____    ______ ____
ATOM      1  C   UNL     1      28.603  -3.420 570.000  0.00  0.00     0.000 C 
TER 
REMARK  Name = C:\Users\adria\Documents\proteinFP\data\structures\O15151.pdb
REMARK                            x       y       z     vdW  Elec       q    Type
REMARK                         _______ _______ _______ _____ _____    ______ ____
ATOM      1  C   UNL     1      43.100  -8.660 571.500  0.00  0.00     0.000 C 
TER 
REMARK  Name = C:\Users\adria\Documents\proteinFP\data\structures\O15151.pdb
REMARK                            x       y       z     vdW  Elec       q    Type
REMARK                         _______ _______ _______ _____ _____    ______ ____
ATOM      1  C   UNL     1      45.860   6.428 573.000  0.00  0.00     0.000 C 
TER 
REMARK  Name = C:\Users\adria\Documents\proteinFP\data\structures\O15151.pdb
REMARK                            x       y       z     vdW  Elec       q    Type
REMARK                         _______ _______ _______ _____ _____    ______ ____
ATOM      1  C   UNL     1      30.640   6.428 574.500  0.00  0.00     0.000 C 
TER 
REMARK  Name = C:\Users\adria\Documents\proteinFP\data\structures\O15151.pdb
REMARK                            x       y       z     vdW  Elec       q    Type
REMARK                         _______ _______ _______ _____ _____    ______ ____
ATOM      1  C   UNL     1      33.400  -8.660 576.000  0.00  0.00     0.000 C 
TER 
REMARK  Name = C:\Users\adria\Documents\proteinFP\data\structures\O15151.pdb
REMARK                            x       y       z     vdW  Elec       q    Type
REMARK                         _______ _______ _______ _____ _____    ______ ____
ATOM      1  C   UNL     1      47.897  -3.420 577.500  0.00  0.00     0.000 C 
TER 
REMARK  Name = C:\Users\adria\Documents\proteinFP\data\structures\O15151.pdb
REMARK                            x       y       z     vdW  Elec       q    Type
REMARK                         _______ _______ _______ _____ _____    ______ ____
ATOM      1  C   UNL     1      40.336   9.848 579.000  0.00  0.00     0.000 C 
TER 
REMARK  Name = C:\Users\adria\Documents\proteinFP\data\structures\O15151.pdb
REMARK                            x       y       z     vdW  Elec       q    Type
REMARK                         _______ _______ _______ _____ _____    ______ ____
ATOM      1  C   UNL     1      28.700   0.000 580.500  0.00  0.00     0.000 C 
TER 
REMARK  Name = C:\Users\adria\Documents\proteinFP\data\structures\O15151.pdb
REMARK                            x       y       z     vdW  Elec       q    Type
REMARK                         _______ _______ _______ _____ _____    ______ ____
ATOM      1  C   UNL     1      40.536  -9.848 582.000  0.00  0.00     0.000 C 
TER 
REMARK  Name = C:\Users\adria\Documents\proteinFP\data\structures\O15151.pdb
REMARK                            x       y       z     vdW  Elec       q    Type
REMARK                         _______ _______ _______ _____ _____    ______ ____
ATOM      1  C   UNL     1      48.297   3.420 583.500  0.00  0.00     0.000 C 
TER 
REMARK  Name = C:\Users\adria\Documents\proteinFP\data\structures\O15151.pdb
REMARK                            x       y       z     vdW  Elec       q    Type
REMARK                         _______ _______ _______ _____ _____    ______ ____
ATOM      1  C   UNL     1      34.000   8.660 585.000  0.00  0.00     0.000 C 
TER 
REMARK  Name = C:\Users\adria\Documents\proteinFP\data\structures\O15151.pdb
REMARK                            x       y       z     vdW  Elec       q    Type
REMARK                         _______ _______ _______ _____ _____    ______ ____
ATOM      1  C   UNL     1      31.440  -6.428 586.500  0.00  0.00     0.000 C 
TER 
REMARK  Name = C:\Users\adria\Documents\proteinFP\data\structures\O15151.pdb
REMARK                            x       y       z     vdW  Elec       q    Type
REMARK                         _______ _______ _______ _____ _____    ______ ____
ATOM      1  C   UNL     1      46.860  -6.428 588.000  0.00  0.00     0.000 C 
TER 
REMARK  Name = C:\Users\adria\Documents\proteinFP\data\structures\O15151.pdb
REMARK                            x       y       z     vdW  Elec       q    Type
REMARK                         _______ _______ _______ _____ _____    ______ ____
ATOM      1  C   UNL     1      44.300   8.660 589.500  0.00  0.00     0.000 C 
TER 
REMARK  Name = C:\Users\adria\Documents\proteinFP\data\structures\O15151.pdb
REMARK                            x       y       z     vdW  Elec       q    Type
REMARK                         _______ _______ _______ _____ _____    ______ ____
ATOM      1  C   UNL     1      30.003   3.420 591.000  0.00  0.00     0.000 C 
TER 
REMARK  Name = C:\Users\adria\Documents\proteinFP\data\structures\O15151.pdb
REMARK                            x       y       z     vdW  Elec       q    Type
REMARK                         _______ _______ _______ _____ _____    ______ ____
ATOM      1  C   UNL     1      37.764  -9.848 592.500  0.00  0.00     0.000 C 
TER 
REMARK  Name = C:\Users\adria\Documents\proteinFP\data\structures\O15151.pdb
REMARK                            x       y       z     vdW  Elec       q    Type
REMARK                         _______ _______ _______ _____ _____    ______ ____
ATOM      1  C   UNL     1      49.600   0.000 594.000  0.00  0.00     0.000 C 
TER 
REMARK  Name = C:\Users\adria\Documents\proteinFP\data\structures\O15151.pdb
REMARK                            x       y       z     vdW  Elec       q    Type
REMARK                         _______ _______ _______ _____ _____    ______ ____
ATOM      1  C   UNL     1      37.964   9.848 595.500  0.00  0.00     0.000 C 
TER 
REMARK  Name = C:\Users\adria\Documents\proteinFP\data\structures\O15151.pdb
REMARK                            x       y       z     vdW  Elec       q    Type
REMARK                         _______ _______ _______ _____ _____    ______ ____
ATOM      1  C   UNL     1      30.403  -3.420 597.000  0.00  0.00     0.000 C 
TER 
REMARK  Name = C:\Users\adria\Documents\proteinFP\data\structures\O15151.pdb
REMARK                            x       y       z     vdW  Elec       q    Type
REMARK                         _______ _______ _______ _____ _____    ______ ____
ATOM      1  C   UNL     1      44.900  -8.660 598.500  0.00  0.00     0.000 C 
TER 
REMARK  Name = C:\Users\adria\Documents\proteinFP\data\structures\O15151.pdb
REMARK                            x       y       z     vdW  Elec       q    Type
REMARK                         _______ _______ _______ _____ _____    ______ ____
ATOM      1  C   UNL     1      47.660   6.428 600.000  0.00  0.00     0.000 C 
TER 
REMARK  Name = C:\Users\adria\Documents\proteinFP\data\structures\O15151.pdb
REMARK                            x       y       z     vdW  Elec       q    Type
REMARK                         _______ _______ _______ _____ _____    ______ ____
ATOM      1  C   UNL     1      32.440   6.428 601.500  0.00  0.00     0.000 C 
TER 
REMARK  Name = C:\Users\adria\Documents\proteinFP\data\structures\O15151.pdb
REMARK                            x       y       z     vdW  Elec       q    Type
REMARK                         _______ _______ _______ _____ _____    ______ ____
ATOM      1  C   UNL     1      35.200  -8.660 603.000  0.00  0.00     0.000 C 
TER 
REMARK  Name = C:\Users\adria\Documents\proteinFP\data\structures\O15151.pdb
REMARK                            x       y       z     vdW  Elec       q    Type
REMARK                         _______ _______ _______ _____ _____    ______ ____
ATOM      1  C   UNL     1      49.697  -3.420 604.500  0.00  0.00     0.000 C 
TER 
REMARK  Name = C:\Users\adria\Documents\proteinFP\data\structures\O15151.pdb
REMARK                            x       y       z     vdW  Elec       q    Type
REMARK                         _______ _______ _______ _____ _____    ______ ____
ATOM      1  C   UNL     1      42.136   9.848 606.000  0.00  0.00     0.000 C 
TER 
REMARK  Name = C:\Users\adria\Documents\proteinFP\data\structures\O15151.pdb
REMARK                            x       y       z     vdW  Elec       q    Type
REMARK                         _______ _______ _______ _____ _____    ______ ____
ATOM      1  C   UNL     1      30.500   0.000 607.500  0.00  0.00     0.000 C 
TER 
REMARK  Name = C:\Users\adria\Documents\proteinFP\data\structures\O15151.pdb
REMARK                            x       y       z     vdW  Elec       q    Type
REMARK                         _______ _______ _______ _____ _____    ______ ____
ATOM      1  C   UNL     1      42.336  -9.848 609.000  0.00  0.00     0.000 C 
TER 
REMARK  Name = C:\Users\adria\Documents\proteinFP\data\structures\O15151.pdb
REMARK                            x       y       z     vdW  Elec       q    Type
REMARK                         _______ _______ _______ _____ _____    ______ ____
ATOM      1  C   UNL     1      50.097   3.420 610.500  0.00  0.00     0.000 C 
TER 
REMARK  Name = C:\Users\adria\Documents\proteinFP\data\structures\O15151.pdb
REMARK                            x       y       z     vdW  Elec       q    Type
REMARK                         _______ _______ _______ _____ _____    ______ ____
ATOM      1  C   UNL     1      35.800   8.660 612.000  0.00  0.00     0.000 C 
TER 
REMARK  Name = C:\Users\adria\Documents\proteinFP\data\structures\O15151.pdb
REMARK                            x       y       z     vdW  Elec       q    Type
REMARK                         _______ _______ _______ _____ _____    ______ ____
ATOM      1  C   UNL     1      33.240  -6.428 613.500  0.00  0.00     0.000 C 
TER 
REMARK  Name = C:\Users\adria\Documents\proteinFP\data\structures\O15151.pdb
REMARK                            x       y       z     vdW  Elec       q    Type
REMARK                         _______ _______ _______ _____ _____    ______ ____
ATOM      1  C   UNL     1      48.660  -6.428 615.000  0.00  0.00     0.000 C 
TER 
REMARK  Name = C:\Users\adria\Documents\proteinFP\data\structures\O15151.pdb
REMARK                            x       y       z     vdW  Elec       q    Type
REMARK                         _______ _______ _______ _____ _____    ______ ____
ATOM      1  C   UNL     1      46.100   8.660 616.500  0.00  0.00     0.000 C 
TER 
REMARK  Name = C:\Users\adria\Documents\proteinFP\data\structures\O15151.pdb
REMARK                            x       y       z     vdW  Elec       q    Type
REMARK                         _______ _______ _______ _____ _____    ______ ____
ATOM      1  C   UNL     1      31.803   3.420 618.000  0.00  0.00     0.000 C 
TER 
REMARK  Name = C:\Users\adria\Documents\proteinFP\data\structures\O15151.pdb
REMARK                            x       y       z     vdW  Elec       q    Type
REMARK                         _______ _______ _______ _____ _____    ______ ____
ATOM      1  C   UNL     1      39.564  -9.848 619.500  0.00  0.00     0.000 C 
TER 
REMARK  Name = C:\Users\adria\Documents\proteinFP\data\structures\O15151.pdb
REMARK                            x       y       z     vdW  Elec       q    Type
REMARK                         _______ _______ _______ _____ _____    ______ ____
ATOM      1  C   UNL     1      51.400   0.000 621.000  0.00  0.00     0.000 C 
TER 
REMARK  Name = C:\Users\adria\Documents\proteinFP\data\structures\O15151.pdb
REMARK                            x       y       z     vdW  Elec       q    Type
REMARK                         _______ _______ _______ _____ _____    ______ ____
ATOM      1  C   UNL     1      39.764   9.848 622.500  0.00  0.00     0.000 C 
TER 
REMARK  Name = C:\Users\adria\Documents\proteinFP\data\structures\O15151.pdb
REMARK                            x       y       z     vdW  Elec       q    Type
REMARK                         _______ _______ _______ _____ _____    ______ ____
ATOM      1  C   UNL     1      32.203  -3.420 624.000  0.00  0.00     0.000 C 
TER 
REMARK  Name = C:\Users\adria\Documents\proteinFP\data\structures\O15151.pdb
REMARK                            x       y       z     vdW  Elec       q    Type
REMARK                         _______ _______ _______ _____ _____    ______ ____
ATOM      1  C   UNL     1      46.700  -8.660 625.500  0.00  0.00     0.000 C 
TER 
REMARK  Name = C:\Users\adria\Documents\proteinFP\data\structures\O15151.pdb
REMARK                            x       y       z     vdW  Elec       q    Type
REMARK                         _______ _______ _______ _____ _____    ______ ____
ATOM      1  C   UNL     1      49.460   6.428 627.000  0.00  0.00     0.000 C 
TER 
REMARK  Name = C:\Users\adria\Documents\proteinFP\data\structures\O15151.pdb
REMARK                            x       y       z     vdW  Elec       q    Type
REMARK                         _______ _______ _______ _____ _____    ______ ____
ATOM      1  C   UNL     1      34.240   6.428 628.500  0.00  0.00     0.000 C 
TER 
REMARK  Name = C:\Users\adria\Documents\proteinFP\data\structures\O15151.pdb
REMARK                            x       y       z     vdW  Elec       q    Type
REMARK                         _______ _______ _______ _____ _____    ______ ____
ATOM      1  C   UNL     1      37.000  -8.660 630.000  0.00  0.00     0.000 C 
TER 
REMARK  Name = C:\Users\adria\Documents\proteinFP\data\structures\O15151.pdb
REMARK                            x       y       z     vdW  Elec       q    Type
REMARK                         _______ _______ _______ _____ _____    ______ ____
ATOM      1  C   UNL     1      51.497  -3.420 631.500  0.00  0.00     0.000 C 
TER 
REMARK  Name = C:\Users\adria\Documents\proteinFP\data\structures\O15151.pdb
REMARK                            x       y       z     vdW  Elec       q    Type
REMARK                         _______ _______ _______ _____ _____    ______ ____
ATOM      1  C   UNL     1      43.936   9.848 633.000  0.00  0.00     0.000 C 
TER 
REMARK  Name = C:\Users\adria\Documents\proteinFP\data\structures\O15151.pdb
REMARK                            x       y       z     vdW  Elec       q    Type
REMARK                         _______ _______ _______ _____ _____    ______ ____
ATOM      1  C   UNL     1      32.300   0.000 634.500  0.00  0.00     0.000 C 
TER 
REMARK  Name = C:\Users\adria\Documents\proteinFP\data\structures\O15151.pdb
REMARK                            x       y       z     vdW  Elec       q    Type
REMARK                         _______ _______ _______ _____ _____    ______ ____
ATOM      1  C   UNL     1      44.136  -9.848 636.000  0.00  0.00     0.000 C 
TER 
REMARK  Name = C:\Users\adria\Documents\proteinFP\data\structures\O15151.pdb
REMARK                            x       y       z     vdW  Elec       q    Type
REMARK                         _______ _______ _______ _____ _____    ______ ____
ATOM      1  C   UNL     1      51.897   3.420 637.500  0.00  0.00     0.000 C 
TER 
REMARK  Name = C:\Users\adria\Documents\proteinFP\data\structures\O15151.pdb
REMARK                            x       y       z     vdW  Elec       q    Type
REMARK                         _______ _______ _______ _____ _____    ______ ____
ATOM      1  C   UNL     1      37.600   8.660 639.000  0.00  0.00     0.000 C 
TER 
REMARK  Name = C:\Users\adria\Documents\proteinFP\data\structures\O15151.pdb
REMARK                            x       y       z     vdW  Elec       q    Type
REMARK                         _______ _______ _______ _____ _____    ______ ____
ATOM      1  C   UNL     1      35.040  -6.428 640.500  0.00  0.00     0.000 C 
TER 
REMARK  Name = C:\Users\adria\Documents\proteinFP\data\structures\O15151.pdb
REMARK                            x       y       z     vdW  Elec       q    Type
REMARK                         _______ _______ _______ _____ _____    ______ ____
ATOM      1  C   UNL     1      50.460  -6.428 642.000  0.00  0.00     0.000 C 
TER 
REMARK  Name = C:\Users\adria\Documents\proteinFP\data\structures\O15151.pdb
REMARK                            x       y       z     vdW  Elec       q    Type
REMARK                         _______ _______ _______ _____ _____    ______ ____
ATOM      1  C   UNL     1      47.900   8.660 643.500  0.00  0.00     0.000 C 
TER 
REMARK  Name = C:\Users\adria\Documents\proteinFP\data\structures\O15151.pdb
REMARK                            x       y       z     vdW  Elec       q    Type
REMARK                         _______ _______ _______ _____ _____    ______ ____
ATOM      1  C   UNL     1      33.603   3.420 645.000  0.00  0.00     0.000 C 
TER 
REMARK  Name = C:\Users\adria\Documents\proteinFP\data\structures\O15151.pdb
REMARK                            x       y       z     vdW  Elec       q    Type
REMARK                         _______ _______ _______ _____ _____    ______ ____
ATOM      1  C   UNL     1      41.364  -9.848 646.500  0.00  0.00     0.000 C 
TER 
REMARK  Name = C:\Users\adria\Documents\proteinFP\data\structures\O15151.pdb
REMARK                            x       y       z     vdW  Elec       q    Type
REMARK                         _______ _______ _______ _____ _____    ______ ____
ATOM      1  C   UNL     1      53.200   0.000 648.000  0.00  0.00     0.000 C 
TER 
REMARK  Name = C:\Users\adria\Documents\proteinFP\data\structures\O15151.pdb
REMARK                            x       y       z     vdW  Elec       q    Type
REMARK                         _______ _______ _______ _____ _____    ______ ____
ATOM      1  C   UNL     1      41.564   9.848 649.500  0.00  0.00     0.000 C 
TER 
REMARK  Name = C:\Users\adria\Documents\proteinFP\data\structures\O15151.pdb
REMARK                            x       y       z     vdW  Elec       q    Type
REMARK                         _______ _______ _______ _____ _____    ______ ____
ATOM      1  C   UNL     1      34.003  -3.420 651.000  0.00  0.00     0.000 C 
TER 
REMARK  Name = C:\Users\adria\Documents\proteinFP\data\structures\O15151.pdb
REMARK                            x       y       z     vdW  Elec       q    Type
REMARK                         _______ _______ _______ _____ _____    ______ ____
ATOM      1  C   UNL     1      48.500  -8.660 652.500  0.00  0.00     0.000 C 
TER 
REMARK  Name = C:\Users\adria\Documents\proteinFP\data\structures\O15151.pdb
REMARK                            x       y       z     vdW  Elec       q    Type
REMARK                         _______ _______ _______ _____ _____    ______ ____
ATOM      1  C   UNL     1      51.260   6.428 654.000  0.00  0.00     0.000 C 
TER 
REMARK  Name = C:\Users\adria\Documents\proteinFP\data\structures\O15151.pdb
REMARK                            x       y       z     vdW  Elec       q    Type
REMARK                         _______ _______ _______ _____ _____    ______ ____
ATOM      1  C   UNL     1      36.040   6.428 655.500  0.00  0.00     0.000 C 
TER 
REMARK  Name = C:\Users\adria\Documents\proteinFP\data\structures\O15151.pdb
REMARK                            x       y       z     vdW  Elec       q    Type
REMARK                         _______ _______ _______ _____ _____    ______ ____
ATOM      1  C   UNL     1      38.800  -8.660 657.000  0.00  0.00     0.000 C 
TER 
REMARK  Name = C:\Users\adria\Documents\proteinFP\data\structures\O15151.pdb
REMARK                            x       y       z     vdW  Elec       q    Type
REMARK                         _______ _______ _______ _____ _____    ______ ____
ATOM      1  C   UNL     1      53.297  -3.420 658.500  0.00  0.00     0.000 C 
TER 
REMARK  Name = C:\Users\adria\Documents\proteinFP\data\structures\O15151.pdb
REMARK                            x       y       z     vdW  Elec       q    Type
REMARK                         _______ _______ _______ _____ _____    ______ ____
ATOM      1  C   UNL     1      45.736   9.848 660.000  0.00  0.00     0.000 C 
TER 
REMARK  Name = C:\Users\adria\Documents\proteinFP\data\structures\O15151.pdb
REMARK                            x       y       z     vdW  Elec       q    Type
REMARK                         _______ _______ _______ _____ _____    ______ ____
ATOM      1  C   UNL     1      34.100   0.000 661.500  0.00  0.00     0.000 C 
TER 
REMARK  Name = C:\Users\adria\Documents\proteinFP\data\structures\O15151.pdb
REMARK                            x       y       z     vdW  Elec       q    Type
REMARK                         _______ _______ _______ _____ _____    ______ ____
ATOM      1  C   UNL     1      45.936  -9.848 663.000  0.00  0.00     0.000 C 
TER 
REMARK  Name = C:\Users\adria\Documents\proteinFP\data\structures\O15151.pdb
REMARK                            x       y       z     vdW  Elec       q    Type
REMARK                         _______ _______ _______ _____ _____    ______ ____
ATOM      1  C   UNL     1      53.697   3.420 664.500  0.00  0.00     0.000 C 
TER 
REMARK  Name = C:\Users\adria\Documents\proteinFP\data\structures\O15151.pdb
REMARK                            x       y       z     vdW  Elec       q    Type
REMARK                         _______ _______ _______ _____ _____    ______ ____
ATOM      1  C   UNL     1      39.400   8.660 666.000  0.00  0.00     0.000 C 
TER 
REMARK  Name = C:\Users\adria\Documents\proteinFP\data\structures\O15151.pdb
REMARK                            x       y       z     vdW  Elec       q    Type
REMARK                         _______ _______ _______ _____ _____    ______ ____
ATOM      1  C   UNL     1      36.840  -6.428 667.500  0.00  0.00     0.000 C 
TER 
REMARK  Name = C:\Users\adria\Documents\proteinFP\data\structures\O15151.pdb
REMARK                            x       y       z     vdW  Elec       q    Type
REMARK                         _______ _______ _______ _____ _____    ______ ____
ATOM      1  C   UNL     1      52.260  -6.428 669.000  0.00  0.00     0.000 C 
TER 
REMARK  Name = C:\Users\adria\Documents\proteinFP\data\structures\O15151.pdb
REMARK                            x       y       z     vdW  Elec       q    Type
REMARK                         _______ _______ _______ _____ _____    ______ ____
ATOM      1  C   UNL     1      49.700   8.660 670.500  0.00  0.00     0.000 C 
TER 
REMARK  Name = C:\Users\adria\Documents\proteinFP\data\structures\O15151.pdb
REMARK                            x       y       z     vdW  Elec       q    Type
REMARK                         _______ _______ _______ _____ _____    ______ ____
ATOM      1  C   UNL     1      35.403   3.420 672.000  0.00  0.00     0.000 C 
TER 
REMARK  Name = C:\Users\adria\Documents\proteinFP\data\structures\O15151.pdb
REMARK                            x       y       z     vdW  Elec       q    Type
REMARK                         _______ _______ _______ _____ _____    ______ ____
ATOM      1  C   UNL     1      43.164  -9.848 673.500  0.00  0.00     0.000 C 
TER 
REMARK  Name = C:\Users\adria\Documents\proteinFP\data\structures\O15151.pdb
REMARK                            x       y       z     vdW  Elec       q    Type
REMARK                         _______ _______ _______ _____ _____    ______ ____
ATOM      1  C   UNL     1      55.000   0.000 675.000  0.00  0.00     0.000 C 
TER 
REMARK  Name = C:\Users\adria\Documents\proteinFP\data\structures\O15151.pdb
REMARK                            x       y       z     vdW  Elec       q    Type
REMARK                         _______ _______ _______ _____ _____    ______ ____
ATOM      1  C   UNL     1      43.364   9.848 676.500  0.00  0.00     0.000 C 
TER 
REMARK  Name = C:\Users\adria\Documents\proteinFP\data\structures\O15151.pdb
REMARK                            x       y       z     vdW  Elec       q    Type
REMARK                         _______ _______ _______ _____ _____    ______ ____
ATOM      1  C   UNL     1      35.803  -3.420 678.000  0.00  0.00     0.000 C 
TER 
REMARK  Name = C:\Users\adria\Documents\proteinFP\data\structures\O15151.pdb
REMARK                            x       y       z     vdW  Elec       q    Type
REMARK                         _______ _______ _______ _____ _____    ______ ____
ATOM      1  C   UNL     1      50.300  -8.660 679.500  0.00  0.00     0.000 C 
TER 
REMARK  Name = C:\Users\adria\Documents\proteinFP\data\structures\O15151.pdb
REMARK                            x       y       z     vdW  Elec       q    Type
REMARK                         _______ _______ _______ _____ _____    ______ ____
ATOM      1  C   UNL     1      53.060   6.428 681.000  0.00  0.00     0.000 C 
TER 
REMARK  Name = C:\Users\adria\Documents\proteinFP\data\structures\O15151.pdb
REMARK                            x       y       z     vdW  Elec       q    Type
REMARK                         _______ _______ _______ _____ _____    ______ ____
ATOM      1  C   UNL     1      37.840   6.428 682.500  0.00  0.00     0.000 C 
TER 
REMARK  Name = C:\Users\adria\Documents\proteinFP\data\structures\O15151.pdb
REMARK                            x       y       z     vdW  Elec       q    Type
REMARK                         _______ _______ _______ _____ _____    ______ ____
ATOM      1  C   UNL     1      40.600  -8.660 684.000  0.00  0.00     0.000 C 
TER 
REMARK  Name = C:\Users\adria\Documents\proteinFP\data\structures\O15151.pdb
REMARK                            x       y       z     vdW  Elec       q    Type
REMARK                         _______ _______ _______ _____ _____    ______ ____
ATOM      1  C   UNL     1      55.097  -3.420 685.500  0.00  0.00     0.000 C 
TER 
REMARK  Name = C:\Users\adria\Documents\proteinFP\data\structures\O15151.pdb
REMARK                            x       y       z     vdW  Elec       q    Type
REMARK                         _______ _______ _______ _____ _____    ______ ____
ATOM      1  C   UNL     1      47.536   9.848 687.000  0.00  0.00     0.000 C 
TER 
REMARK  Name = C:\Users\adria\Documents\proteinFP\data\structures\O15151.pdb
REMARK                            x       y       z     vdW  Elec       q    Type
REMARK                         _______ _______ _______ _____ _____    ______ ____
ATOM      1  C   UNL     1      35.900   0.000 688.500  0.00  0.00     0.000 C 
TER 
REMARK  Name = C:\Users\adria\Documents\proteinFP\data\structures\O15151.pdb
REMARK                            x       y       z     vdW  Elec       q    Type
REMARK                         _______ _______ _______ _____ _____    ______ ____
ATOM      1  C   UNL     1      47.736  -9.848 690.000  0.00  0.00     0.000 C 
TER 
REMARK  Name = C:\Users\adria\Documents\proteinFP\data\structures\O15151.pdb
REMARK                            x       y       z     vdW  Elec       q    Type
REMARK                         _______ _______ _______ _____ _____    ______ ____
ATOM      1  C   UNL     1      55.497   3.420 691.500  0.00  0.00     0.000 C 
TER 
REMARK  Name = C:\Users\adria\Documents\proteinFP\data\structures\O15151.pdb
REMARK                            x       y       z     vdW  Elec       q    Type
REMARK                         _______ _______ _______ _____ _____    ______ ____
ATOM      1  C   UNL     1      41.200   8.660 693.000  0.00  0.00     0.000 C 
TER 
REMARK  Name = C:\Users\adria\Documents\proteinFP\data\structures\O15151.pdb
REMARK                            x       y       z     vdW  Elec       q    Type
REMARK                         _______ _______ _______ _____ _____    ______ ____
ATOM      1  C   UNL     1      38.640  -6.428 694.500  0.00  0.00     0.000 C 
TER 
REMARK  Name = C:\Users\adria\Documents\proteinFP\data\structures\O15151.pdb
REMARK                            x       y       z     vdW  Elec       q    Type
REMARK                         _______ _______ _______ _____ _____    ______ ____
ATOM      1  C   UNL     1      54.060  -6.428 696.000  0.00  0.00     0.000 C 
TER 
REMARK  Name = C:\Users\adria\Documents\proteinFP\data\structures\O15151.pdb
REMARK                            x       y       z     vdW  Elec       q    Type
REMARK                         _______ _______ _______ _____ _____    ______ ____
ATOM      1  C   UNL     1      51.500   8.660 697.500  0.00  0.00     0.000 C 
TER 
REMARK  Name = C:\Users\adria\Documents\proteinFP\data\structures\O15151.pdb
REMARK                            x       y       z     vdW  Elec       q    Type
REMARK                         _______ _______ _______ _____ _____    ______ ____
ATOM      1  C   UNL     1      37.203   3.420 699.000  0.00  0.00     0.000 C 
TER 
REMARK  Name = C:\Users\adria\Documents\proteinFP\data\structures\O15151.pdb
REMARK                            x       y       z     vdW  Elec       q    Type
REMARK                         _______ _______ _______ _____ _____    ______ ____
ATOM      1  C   UNL     1      44.964  -9.848 700.500  0.00  0.00     0.000 C 
TER 
REMARK  Name = C:\Users\adria\Documents\proteinFP\data\structures\O15151.pdb
REMARK                            x       y       z     vdW  Elec       q    Type
REMARK                         _______ _______ _______ _____ _____    ______ ____
ATOM      1  C   UNL     1      56.800   0.000 702.000  0.00  0.00     0.000 C 
TER 
REMARK  Name = C:\Users\adria\Documents\proteinFP\data\structures\O15151.pdb
REMARK                            x       y       z     vdW  Elec       q    Type
REMARK                         _______ _______ _______ _____ _____    ______ ____
ATOM      1  C   UNL     1      45.164   9.848 703.500  0.00  0.00     0.000 C 
TER 
REMARK  Name = C:\Users\adria\Documents\proteinFP\data\structures\O15151.pdb
REMARK                            x       y       z     vdW  Elec       q    Type
REMARK                         _______ _______ _______ _____ _____    ______ ____
ATOM      1  C   UNL     1      37.603  -3.420 705.000  0.00  0.00     0.000 C 
TER 
REMARK  Name = C:\Users\adria\Documents\proteinFP\data\structures\O15151.pdb
REMARK                            x       y       z     vdW  Elec       q    Type
REMARK                         _______ _______ _______ _____ _____    ______ ____
ATOM      1  C   UNL     1      52.100  -8.660 706.500  0.00  0.00     0.000 C 
TER 
REMARK  Name = C:\Users\adria\Documents\proteinFP\data\structures\O15151.pdb
REMARK                            x       y       z     vdW  Elec       q    Type
REMARK                         _______ _______ _______ _____ _____    ______ ____
ATOM      1  C   UNL     1      54.860   6.428 708.000  0.00  0.00     0.000 C 
TER 
REMARK  Name = C:\Users\adria\Documents\proteinFP\data\structures\O15151.pdb
REMARK                            x       y       z     vdW  Elec       q    Type
REMARK                         _______ _______ _______ _____ _____    ______ ____
ATOM      1  C   UNL     1      39.640   6.428 709.500  0.00  0.00     0.000 C 
TER 
REMARK  Name = C:\Users\adria\Documents\proteinFP\data\structures\O15151.pdb
REMARK                            x       y       z     vdW  Elec       q    Type
REMARK                         _______ _______ _______ _____ _____    ______ ____
ATOM      1  C   UNL     1      42.400  -8.660 711.000  0.00  0.00     0.000 C 
TER 
REMARK  Name = C:\Users\adria\Documents\proteinFP\data\structures\O15151.pdb
REMARK                            x       y       z     vdW  Elec       q    Type
REMARK                         _______ _______ _______ _____ _____    ______ ____
ATOM      1  C   UNL     1      56.897  -3.420 712.500  0.00  0.00     0.000 C 
TER 
REMARK  Name = C:\Users\adria\Documents\proteinFP\data\structures\O15151.pdb
REMARK                            x       y       z     vdW  Elec       q    Type
REMARK                         _______ _______ _______ _____ _____    ______ ____
ATOM      1  C   UNL     1      49.336   9.848 714.000  0.00  0.00     0.000 C 
TER 
REMARK  Name = C:\Users\adria\Documents\proteinFP\data\structures\O15151.pdb
REMARK                            x       y       z     vdW  Elec       q    Type
REMARK                         _______ _______ _______ _____ _____    ______ ____
ATOM      1  C   UNL     1      37.700   0.000 715.500  0.00  0.00     0.000 C 
TER 
REMARK  Name = C:\Users\adria\Documents\proteinFP\data\structures\O15151.pdb
REMARK                            x       y       z     vdW  Elec       q    Type
REMARK                         _______ _______ _______ _____ _____    ______ ____
ATOM      1  C   UNL     1      49.536  -9.848 717.000  0.00  0.00     0.000 C 
TER 
REMARK  Name = C:\Users\adria\Documents\proteinFP\data\structures\O15151.pdb
REMARK                            x       y       z     vdW  Elec       q    Type
REMARK                         _______ _______ _______ _____ _____    ______ ____
ATOM      1  C   UNL     1      57.297   3.420 718.500  0.00  0.00     0.000 C 
TER 
REMARK  Name = C:\Users\adria\Documents\proteinFP\data\structures\O15151.pdb
REMARK                            x       y       z     vdW  Elec       q    Type
REMARK                         _______ _______ _______ _____ _____    ______ ____
ATOM      1  C   UNL     1      43.000   8.660 720.000  0.00  0.00     0.000 C 
TER 
REMARK  Name = C:\Users\adria\Documents\proteinFP\data\structures\O15151.pdb
REMARK                            x       y       z     vdW  Elec       q    Type
REMARK                         _______ _______ _______ _____ _____    ______ ____
ATOM      1  C   UNL     1      40.440  -6.428 721.500  0.00  0.00     0.000 C 
TER 
REMARK  Name = C:\Users\adria\Documents\proteinFP\data\structures\O15151.pdb
REMARK                            x       y       z     vdW  Elec       q    Type
REMARK                         _______ _______ _______ _____ _____    ______ ____
ATOM      1  C   UNL     1      55.860  -6.428 723.000  0.00  0.00     0.000 C 
TER 
REMARK  Name = C:\Users\adria\Documents\proteinFP\data\structures\O15151.pdb
REMARK                            x       y       z     vdW  Elec       q    Type
REMARK                         _______ _______ _______ _____ _____    ______ ____
ATOM      1  C   UNL     1      53.300   8.660 724.500  0.00  0.00     0.000 C 
TER 
REMARK  Name = C:\Users\adria\Documents\proteinFP\data\structures\O15151.pdb
REMARK                            x       y       z     vdW  Elec       q    Type
REMARK                         _______ _______ _______ _____ _____    ______ ____
ATOM      1  C   UNL     1      39.003   3.420 726.000  0.00  0.00     0.000 C 
TER 
REMARK  Name = C:\Users\adria\Documents\proteinFP\data\structures\O15151.pdb
REMARK                            x       y       z     vdW  Elec       q    Type
REMARK                         _______ _______ _______ _____ _____    ______ ____
ATOM      1  C   UNL     1      46.764  -9.848 727.500  0.00  0.00     0.000 C 
TER 
REMARK  Name = C:\Users\adria\Documents\proteinFP\data\structures\O15151.pdb
REMARK                            x       y       z     vdW  Elec       q    Type
REMARK                         _______ _______ _______ _____ _____    ______ ____
ATOM      1  C   UNL     1      58.600   0.000 729.000  0.00  0.00     0.000 C 
TER 
REMARK  Name = C:\Users\adria\Documents\proteinFP\data\structures\O15151.pdb
REMARK                            x       y       z     vdW  Elec       q    Type
REMARK                         _______ _______ _______ _____ _____    ______ ____
ATOM      1  C   UNL     1      46.964   9.848 730.500  0.00  0.00     0.000 C 
TER 
REMARK  Name = C:\Users\adria\Documents\proteinFP\data\structures\O15151.pdb
REMARK                            x       y       z     vdW  Elec       q    Type
REMARK                         _______ _______ _______ _____ _____    ______ ____
ATOM      1  C   UNL     1      39.403  -3.420 732.000  0.00  0.00     0.000 C 
TER 
REMARK  Name = C:\Users\adria\Documents\proteinFP\data\structures\O15151.pdb
REMARK                            x       y       z     vdW  Elec       q    Type
REMARK                         _______ _______ _______ _____ _____    ______ ____
ATOM      1  C   UNL     1      53.900  -8.660 733.500  0.00  0.00     0.000 C 
TER 
REMARK  Name = C:\Users\adria\Documents\proteinFP\data\structures\O15151.pdb
REMARK                            x       y       z     vdW  Elec       q    Type
REMARK                         _______ _______ _______ _____ _____    ______ ____
ATOM      1  C   UNL     1      56.660   6.428 735.000  0.00  0.00     0.000 C 
TER 
