REMARK  Name = C:\Users\adria\Documents\proteinFP\_tmp_28691aa6\ligand.pdb
REMARK  6 active torsions:
REMARK  status: ('A' for Active; 'I' for Inactive)
REMARK    1  A    between atoms: _1  and  _2
REMARK    2  A    between atoms: _6  and  _7
REMARK    3  A    between atoms: _11  and  _12
REMARK    4  A    between atoms: _15  and  _16
REMARK    5  A    between atoms: _16  and  _17
REMARK    6  A    between atoms: _21  and  _22
REMARK                            x       y       z     vdW  Elec       q    Type
REMARK                         _______ _______ _______ _____ _____    ______ ____
ROOT
ATOM      1  C   UNL     1      -0.904   1.387  -0.940  0.00  0.00    -0.029 A 
ATOM      2  C   UNL     1      -0.088   0.244  -0.942  0.00  0.00    +0.005 A 
ATOM      3  C   UNL     1       1.305   0.347  -0.894  0.00  0.00    +0.004 A 
ATOM      4  C   UNL     1       1.919   1.603  -0.819  0.00  0.00    -0.043 A 
ATOM      5  C   UNL     1       1.113   2.744  -0.785  0.00  0.00    +0.004 A 
ATOM      6  C   UNL     1      -0.282   2.638  -0.834  0.00  0.00    +0.005 A 
ENDROOT
BRANCH   1  10
ATOM      7  C   UNL     1      -4.359   0.956   0.471  0.00  0.00    +0.139 C 
ATOM      8  N   UNL     1      -2.896   0.865   0.363  0.00  0.00    -0.292 NA
ATOM      9  H   UNL     1      -2.499   1.558   0.996  0.00  0.00    +0.124 HD
ATOM     10  C   UNL     1      -2.419   1.206  -1.000  0.00  0.00    +0.099 C 
ATOM     11  C   UNL     1      -3.200   2.396  -1.650  0.00  0.00    +0.104 C 
ATOM     12  N   UNL     1      -3.877   3.257  -0.657  0.00  0.00    -0.311 NA
ATOM     13  H   UNL     1      -3.172   3.573   0.009  0.00  0.00    +0.122 HD
ATOM     14  C   UNL     1      -4.851   2.413   0.078  0.00  0.00    +0.115 C 
BRANCH   7  17
ATOM     15  C   UNL     1      -5.183  -2.572  -0.738  0.00  0.00    +0.057 C 
ATOM     16  C   UNL     1      -4.399  -1.461  -0.027  0.00  0.00    +0.099 C 
ATOM     17  N   UNL     1      -4.997  -0.134  -0.290  0.00  0.00    -0.285 NA
ATOM     18  C   UNL     1      -6.468  -0.146  -0.169  0.00  0.00    +0.086 C 
ATOM     19  C   UNL     1      -7.059  -1.393   0.484  0.00  0.00    +0.016 C 
ATOM     20  C   UNL     1      -6.610  -2.680  -0.199  0.00  0.00    +0.016 C 
BRANCH  15  21
ATOM     21  S   UNL     1      -4.324  -4.176  -0.609  0.00  0.00    -0.174 S 
ATOM     22  H   UNL     1      -4.329  -4.250   0.730  0.00  0.00    +0.102 HD
ENDBRANCH  15  21
ENDBRANCH   7  17
ENDBRANCH   1  10
BRANCH   4  23
ATOM     23  C   UNL     1       3.425   1.729  -0.839  0.00  0.00    +0.070 C 
BRANCH  23  24
ATOM     24  C   UNL     1       4.153   1.094   0.323  0.00  0.00    -0.040 A 
ATOM     25  C   UNL     1       5.241   0.244   0.090  0.00  0.00    +0.032 A 
ATOM     26  C   UNL     1       5.956  -0.283   1.167  0.00  0.00    +0.071 A 
ATOM     27  N   UNL     1       5.637   0.017   2.451  0.00  0.00    -0.255 NA
ATOM     28  C   UNL     1       4.579   0.828   2.659  0.00  0.00    +0.111 A 
ATOM     29  C   UNL     1       3.820   1.388   1.646  0.00  0.00    +0.023 A 
BRANCH  26  30
ATOM     30  C   UNL     1       7.110  -1.182   0.981  0.00  0.00    +0.000 A 
ATOM     31  C   UNL     1       7.092  -2.224   0.036  0.00  0.00    +0.010 A 
ATOM     32  C   UNL     1       8.193  -3.070  -0.134  0.00  0.00    +0.001 A 
ATOM     33  C   UNL     1       9.336  -2.891   0.639  0.00  0.00    +0.000 A 
ATOM     34  C   UNL     1       9.376  -1.870   1.586  0.00  0.00    +0.001 A 
ATOM     35  C   UNL     1       8.272  -1.028   1.756  0.00  0.00    +0.010 A 
ENDBRANCH  26  30
ENDBRANCH  23  24
ENDBRANCH   4  23
TORSDOF 6
