ROOT
HETATM    1  O   LIG A   1       3.259  -0.483  -2.910  1.00  0.00    -0.283 OA
HETATM    2  C   LIG A   1       2.410  -0.362  -2.056  1.00  0.00     0.254 C
HETATM    3  C   LIG A   1       0.878  -0.281  -2.258  1.00  0.00     0.314 C
HETATM    4  O   LIG A   1       0.324  -0.324  -3.337  1.00  0.00    -0.263 OA
HETATM    5  N   LIG A   1       0.364  -0.149  -0.966  1.00  0.00    -0.235 NA
HETATM    6  N   LIG A   1      -0.994  -0.038  -0.723  1.00  0.00    -0.211 NA
HETATM    7  C   LIG A   1      -1.659  -1.178  -0.095  1.00  0.00     0.031 C
HETATM    8  C   LIG A   1      -2.629  -0.770   1.034  1.00  0.00     0.010 C
HETATM    9  N   LIG A   1      -3.597   0.269   0.666  1.00  0.00    -0.314 NA
HETATM   10  C   LIG A   1      -3.031   1.278  -0.242  1.00  0.00     0.010 C
HETATM   11  C   LIG A   1      -1.493   1.283  -0.358  1.00  0.00     0.031 C
HETATM   12  C   LIG A   1       1.389  -0.133  -0.003  1.00  0.00     0.073 C
HETATM   13  C   LIG A   1       1.302  -0.018   1.373  1.00  0.00    -0.036 C
HETATM   14  C   LIG A   1       2.492  -0.032   2.113  1.00  0.00    -0.060 C
HETATM   15  C   LIG A   1       3.742  -0.161   1.477  1.00  0.00    -0.061 C
HETATM   16  C   LIG A   1       3.824  -0.278   0.089  1.00  0.00    -0.049 C
HETATM   17  C   LIG A   1       2.634  -0.260  -0.614  1.00  0.00     0.053 C
HETATM   18  H   LIG A   1      -2.222  -1.710  -0.872  1.00  0.00     0.046 H
HETATM   19  H   LIG A   1      -0.937  -1.897   0.311  1.00  0.00     0.046 H
HETATM   20  H   LIG A   1      -2.046  -0.415   1.893  1.00  0.00     0.044 H
HETATM   21  H   LIG A   1      -3.179  -1.655   1.375  1.00  0.00     0.044 H
HETATM   22  H   LIG A   1      -3.963   0.713   1.507  1.00  0.00     0.122 H
HETATM   23  H   LIG A   1      -3.461   1.106  -1.237  1.00  0.00     0.044 H
HETATM   24  H   LIG A   1      -3.372   2.272   0.072  1.00  0.00     0.044 H
HETATM   25  H   LIG A   1      -1.064   1.615   0.595  1.00  0.00     0.046 H
HETATM   26  H   LIG A   1      -1.200   2.016  -1.119  1.00  0.00     0.046 H
HETATM   27  H   LIG A   1       0.350   0.082   1.879  1.00  0.00     0.065 H
HETATM   28  H   LIG A   1       2.452   0.057   3.197  1.00  0.00     0.062 H
HETATM   29  H   LIG A   1       4.651  -0.170   2.075  1.00  0.00     0.062 H
HETATM   30  H   LIG A   1       4.777  -0.378  -0.420  1.00  0.00     0.063 H
ENDROOT
TORSDOF 0
