ROOT
HETATM    1  C   LIG A   1       2.479  -1.304  -0.510  1.00  0.00     0.003 C
HETATM    2  N   LIG A   1       1.047  -1.092  -0.635  1.00  0.00    -0.387 NA
HETATM    3  C   LIG A   1       0.494   0.110  -0.148  1.00  0.00     0.050 C
HETATM    4  C   LIG A   1       1.199   1.318  -0.208  1.00  0.00    -0.020 C
HETATM    5  C   LIG A   1       0.585   2.494   0.206  1.00  0.00     0.029 C
HETATM    6  N   LIG A   1      -0.681   2.562   0.663  1.00  0.00    -0.264 NA
HETATM    7  C   LIG A   1      -1.367   1.396   0.690  1.00  0.00     0.042 C
HETATM    8  C   LIG A   1      -0.850   0.172   0.276  1.00  0.00     0.081 C
HETATM    9  C   LIG A   1      -1.700  -1.042   0.347  1.00  0.00     0.252 C
HETATM   10  N   LIG A   1      -3.043  -0.889   0.125  1.00  0.00    -0.365 NA
HETATM   11  O   LIG A   1      -1.223  -2.150   0.565  1.00  0.00    -0.269 OA
HETATM   12  H   LIG A   1       2.714  -2.336  -0.790  1.00  0.00     0.045 H
HETATM   13  H   LIG A   1       3.042  -0.651  -1.184  1.00  0.00     0.045 H
HETATM   14  H   LIG A   1       2.817  -1.152   0.521  1.00  0.00     0.045 H
HETATM   15  H   LIG A   1       0.515  -1.893  -0.265  1.00  0.00     0.160 H
HETATM   16  H   LIG A   1       2.213   1.368  -0.584  1.00  0.00     0.066 H
HETATM   17  H   LIG A   1       1.118   3.440   0.172  1.00  0.00     0.084 H
HETATM   18  H   LIG A   1      -2.376   1.485   1.082  1.00  0.00     0.085 H
HETATM   19  H   LIG A   1      -3.568  -1.751   0.037  1.00  0.00     0.159 H
HETATM   20  H   LIG A   1      -3.412  -0.084  -0.362  1.00  0.00     0.159 H
ENDROOT
TORSDOF 0
