ROOT
HETATM    1  N   LIG A   1       2.385   3.204  -0.186  1.00  0.00    -0.192 NA
HETATM    2  C   LIG A   1       1.973   2.120  -0.138  1.00  0.00     0.100 C
HETATM    3  C   LIG A   1       1.471   0.775  -0.079  1.00  0.00     0.060 C
HETATM    4  C   LIG A   1       2.405  -0.272  -0.083  1.00  0.00    -0.044 C
HETATM    5  C   LIG A   1       1.976  -1.594  -0.027  1.00  0.00    -0.060 C
HETATM    6  C   LIG A   1       0.613  -1.877   0.033  1.00  0.00    -0.054 C
HETATM    7  C   LIG A   1      -0.341  -0.846   0.038  1.00  0.00    -0.017 C
HETATM    8  C   LIG A   1      -1.711  -1.152   0.099  1.00  0.00    -0.054 C
HETATM    9  C   LIG A   1      -2.672  -0.142   0.106  1.00  0.00    -0.062 C
HETATM   10  C   LIG A   1      -2.278   1.188   0.051  1.00  0.00    -0.062 C
HETATM   11  C   LIG A   1      -0.920   1.510  -0.010  1.00  0.00    -0.053 C
HETATM   12  C   LIG A   1       0.079   0.507  -0.018  1.00  0.00    -0.001 C
HETATM   13  H   LIG A   1       3.472  -0.060  -0.130  1.00  0.00     0.064 H
HETATM   14  H   LIG A   1       2.700  -2.405  -0.030  1.00  0.00     0.062 H
HETATM   15  H   LIG A   1       0.297  -2.918   0.076  1.00  0.00     0.063 H
HETATM   16  H   LIG A   1      -2.043  -2.187   0.143  1.00  0.00     0.063 H
HETATM   17  H   LIG A   1      -3.728  -0.396   0.153  1.00  0.00     0.062 H
HETATM   18  H   LIG A   1      -3.024   1.979   0.055  1.00  0.00     0.062 H
HETATM   19  H   LIG A   1      -0.653   2.565  -0.052  1.00  0.00     0.063 H
ENDROOT
TORSDOF 0
