ROOT
HETATM    1  C   LIG A   1      -4.371   0.059   0.174  1.00  0.00    -0.062 C
HETATM    2  C   LIG A   1      -3.670   0.683   1.202  1.00  0.00    -0.062 C
HETATM    3  C   LIG A   1      -2.274   0.747   1.159  1.00  0.00    -0.054 C
HETATM    4  C   LIG A   1      -1.556   0.188   0.089  1.00  0.00    -0.018 C
HETATM    5  C   LIG A   1      -0.086   0.255   0.044  1.00  0.00    -0.018 C
HETATM    6  C   LIG A   1       0.581   1.487   0.140  1.00  0.00    -0.052 C
HETATM    7  C   LIG A   1       1.978   1.584   0.099  1.00  0.00    -0.037 C
HETATM    8  C   LIG A   1       2.703   0.398  -0.042  1.00  0.00     0.045 C
HETATM    9  N   LIG A   1       4.062   0.187  -0.111  1.00  0.00    -0.361 NA
HETATM   10  C   LIG A   1       4.327  -1.150  -0.247  1.00  0.00     0.002 C
HETATM   11  C   LIG A   1       3.124  -1.817  -0.267  1.00  0.00    -0.037 C
HETATM   12  C   LIG A   1       2.089  -0.850  -0.140  1.00  0.00    -0.000 C
HETATM   13  C   LIG A   1       0.682  -0.918  -0.097  1.00  0.00    -0.045 C
HETATM   14  C   LIG A   1      -2.283  -0.438  -0.937  1.00  0.00    -0.054 C
HETATM   15  C   LIG A   1      -3.679  -0.502  -0.896  1.00  0.00    -0.062 C
HETATM   16  H   LIG A   1      -5.456   0.009   0.207  1.00  0.00     0.062 H
HETATM   17  H   LIG A   1      -4.206   1.119   2.041  1.00  0.00     0.062 H
HETATM   18  H   LIG A   1      -1.744   1.229   1.978  1.00  0.00     0.063 H
HETATM   19  H   LIG A   1       0.003   2.405   0.237  1.00  0.00     0.063 H
HETATM   20  H   LIG A   1       2.470   2.548   0.171  1.00  0.00     0.065 H
HETATM   21  H   LIG A   1       4.757   0.919  -0.066  1.00  0.00     0.166 H
HETATM   22  H   LIG A   1       5.345  -1.509  -0.317  1.00  0.00     0.082 H
HETATM   23  H   LIG A   1       2.997  -2.887  -0.364  1.00  0.00     0.065 H
HETATM   24  H   LIG A   1       0.195  -1.888  -0.162  1.00  0.00     0.064 H
HETATM   25  H   LIG A   1      -1.762  -0.873  -1.787  1.00  0.00     0.063 H
HETATM   26  H   LIG A   1      -4.223  -0.987  -1.702  1.00  0.00     0.062 H
ENDROOT
TORSDOF 0
