REMARK  Name = C:\Users\adria\Documents\proteinFP\_tmp_ba0b5a83\ligand.pdb
REMARK  5 active torsions:
REMARK  status: ('A' for Active; 'I' for Inactive)
REMARK    1  A    between atoms: _2  and  _3
REMARK    2  A    between atoms: _3  and  _4
REMARK    3  A    between atoms: _7  and  _8
REMARK    4  A    between atoms: _8  and  _9
REMARK    5  A    between atoms: _14  and  _15
REMARK                            x       y       z     vdW  Elec       q    Type
REMARK                         _______ _______ _______ _____ _____    ______ ____
ROOT
ATOM      1  C   UNL     1      -1.880  -1.283   1.160  0.00  0.00    -0.042 A 
ATOM      2  C   UNL     1      -0.940  -0.593   1.942  0.00  0.00    +0.012 A 
ATOM      3  C   UNL     1       0.342  -0.296   1.448  0.00  0.00    -0.018 A 
ATOM      4  C   UNL     1       1.285   0.391   2.226  0.00  0.00    +0.009 A 
ATOM      5  C   UNL     1       2.556   0.681   1.721  0.00  0.00    +0.006 A 
ATOM      6  C   UNL     1       2.914   0.299   0.421  0.00  0.00    -0.029 A 
ATOM      7  C   UNL     1       1.973  -0.401  -0.352  0.00  0.00    +0.013 A 
ATOM      8  C   UNL     1       0.692  -0.701   0.142  0.00  0.00    -0.018 A 
ATOM      9  C   UNL     1      -0.248  -1.395  -0.634  0.00  0.00    +0.009 A 
ATOM     10  C   UNL     1      -1.518  -1.686  -0.130  0.00  0.00    +0.004 A 
ENDROOT
BRANCH   6  11
ATOM     11  C   UNL     1       4.295   0.590  -0.150  0.00  0.00    +0.098 C 
ATOM     12  N   UNL     1       5.295  -0.331   0.433  0.00  0.00    -0.307 NA
ATOM     13  H   UNL     1       4.996  -0.632   1.358  0.00  0.00    +0.123 HD
ATOM     14  C   UNL     1       6.625   0.285   0.526  0.00  0.00    +0.096 C 
ATOM     15  C   UNL     1       6.919   1.298  -0.600  0.00  0.00    +0.096 C 
ATOM     16  N   UNL     1       5.991   2.438  -0.643  0.00  0.00    -0.313 NA
ATOM     17  H   UNL     1       6.387   3.228  -0.137  0.00  0.00    +0.122 HD
ATOM     18  C   UNL     1       4.685   2.098  -0.042  0.00  0.00    +0.104 C 
ENDBRANCH   6  11
BRANCH   1  19
ATOM     19  C   UNL     1      -3.250  -1.604   1.715  0.00  0.00    +0.070 C 
BRANCH  19  23
ATOM     20  C   UNL     1      -6.525   0.022  -0.559  0.00  0.00    +0.131 A 
ATOM     21  C   UNL     1      -6.438  -1.356  -0.372  0.00  0.00    +0.046 A 
ATOM     22  C   UNL     1      -5.372  -1.880   0.361  0.00  0.00    +0.007 A 
ATOM     23  C   UNL     1      -4.401  -1.030   0.916  0.00  0.00    -0.043 A 
ATOM     24  C   UNL     1      -4.526   0.357   0.737  0.00  0.00    +0.007 A 
ATOM     25  C   UNL     1      -5.589   0.885   0.003  0.00  0.00    +0.046 A 
BRANCH  20  26
ATOM     26  O   UNL     1      -7.606   0.583  -1.245  0.00  0.00    -0.428 OA
BRANCH  26  28
ATOM     27  O   UNL     1      -6.815  -0.326  -3.260  0.00  0.00    -0.254 OA
ATOM     28  C   UNL     1      -7.621   0.313  -2.602  0.00  0.00    +0.451 C 
ENDBRANCH  26  28
ENDBRANCH  20  26
ENDBRANCH  19  23
ENDBRANCH   1  19
TORSDOF 5
