REMARK  Name = C:\Users\adria\Documents\proteinFP\_tmp_b84a61c1\ligand.pdb
REMARK  3 active torsions:
REMARK  status: ('A' for Active; 'I' for Inactive)
REMARK    1  A    between atoms: _5  and  _6
REMARK    2  A    between atoms: _9  and  _10
REMARK    3  A    between atoms: _14  and  _15
REMARK                            x       y       z     vdW  Elec       q    Type
REMARK                         _______ _______ _______ _____ _____    ______ ____
ROOT
ATOM      1  C   UNL     1      -2.459  -0.176  -0.634  0.00  0.00    +0.039 C 
ATOM      2  C   UNL     1      -0.994  -0.247  -0.161  0.00  0.00    +0.113 C 
ATOM      3  N   UNL     1      -0.616  -1.654  -0.332  0.00  0.00    -0.325 N 
ATOM      4  C   UNL     1      -1.815  -2.481  -0.468  0.00  0.00    +0.106 C 
ATOM      5  C   UNL     1      -2.979  -1.538  -0.175  0.00  0.00    +0.028 C 
ENDROOT
BRANCH   1   8
ATOM      6  C   UNL     1      -5.236   2.126   0.641  0.00  0.00    +0.020 A 
ATOM      7  C   UNL     1      -4.567   0.971   0.241  0.00  0.00    +0.007 A 
ATOM      8  C   UNL     1      -3.228   1.034  -0.158  0.00  0.00    -0.025 A 
ATOM      9  C   UNL     1      -2.642   2.301  -0.161  0.00  0.00    +0.114 A 
ATOM     10  N   UNL     1      -3.266   3.440   0.220  0.00  0.00    -0.263 NA
ATOM     11  C   UNL     1      -4.548   3.325   0.616  0.00  0.00    +0.111 A 
ENDBRANCH   1   8
BRANCH   3  12
ATOM     12  C   UNL     1       0.565  -2.139   0.160  0.00  0.00    +0.091 A 
ATOM     13  C   UNL     1       1.741  -1.445   0.451  0.00  0.00    +0.210 A 
ATOM     14  O   UNL     1       2.643  -2.299   1.020  0.00  0.00    -0.447 OA
ATOM     15  C   UNL     1       2.093  -3.535   1.023  0.00  0.00    +0.199 A 
ATOM     16  C   UNL     1       0.830  -3.498   0.487  0.00  0.00    +0.066 A 
BRANCH  13  17
ATOM     17  N   UNL     1       2.161  -0.158   0.255  0.00  0.00    -0.300 N 
ATOM     18  C   UNL     1       3.208   0.342   1.161  0.00  0.00    +0.108 C 
ATOM     19  C   UNL     1       3.637   1.747   0.752  0.00  0.00    +0.019 C 
ATOM     20  C   UNL     1       4.244   1.750  -0.652  0.00  0.00    +0.003 C 
ATOM     21  C   UNL     1       3.691   0.626  -1.529  0.00  0.00    +0.019 C 
ATOM     22  C   UNL     1       2.252   0.282  -1.150  0.00  0.00    +0.108 C 
ENDBRANCH  13  17
ENDBRANCH   3  12
TORSDOF 3
