REMARK  Name = C:\Users\adria\Documents\proteinFP\_tmp_d2991a42\ligand.pdb
REMARK  2 active torsions:
REMARK  status: ('A' for Active; 'I' for Inactive)
REMARK    1  A    between atoms: _1  and  _2
REMARK    2  A    between atoms: _2  and  _3
REMARK                            x       y       z     vdW  Elec       q    Type
REMARK                         _______ _______ _______ _____ _____    ______ ____
ROOT
ATOM      1  C   UNL     1      -0.209   0.169  -0.134  0.00  0.00    +0.020 A 
ATOM      2  C   UNL     1       1.171  -0.222  -0.109  0.00  0.00    +0.067 A 
ATOM      3 BR   UNL     1       1.738  -2.025  -0.211  0.00  0.00    -0.046 Br
ATOM      4  C   UNL     1       2.031   0.839   0.003  0.00  0.00    +0.176 A 
ATOM      5  F   UNL     1       3.368   0.720   0.047  0.00  0.00    -0.197 F 
ATOM      6  S   UNL     1       1.224   2.323   0.083  0.00  0.00    -0.046 S 
ATOM      7  C   UNL     1      -0.281   1.546  -0.030  0.00  0.00    +0.087 A 
ATOM      8 CL   UNL     1      -1.699   2.525  -0.006  0.00  0.00    -0.075 Cl
ENDROOT
BRANCH   1   9
ATOM      9  C   UNL     1      -1.377  -0.755  -0.248  0.00  0.00    +0.194 C 
BRANCH   9  10
ATOM     10  O   UNL     1      -1.625  -1.430   0.979  0.00  0.00    -0.390 OA
ATOM     11  H   UNL     1      -0.838  -1.965   1.176  0.00  0.00    +0.210 HD
ENDBRANCH   9  10
ENDBRANCH   1   9
TORSDOF 2
