ROOT
HETATM    1  C   LIG A   1      -4.637   0.740   0.278  1.00  0.00    -0.062 C
HETATM    2  C   LIG A   1      -4.419  -0.561   0.715  1.00  0.00    -0.060 C
HETATM    3  C   LIG A   1      -3.126  -1.094   0.698  1.00  0.00    -0.036 C
HETATM    4  C   LIG A   1      -2.037  -0.357   0.253  1.00  0.00     0.071 C
HETATM    5  N   LIG A   1      -0.813  -0.917   0.258  1.00  0.00    -0.251 NA
HETATM    6  C   LIG A   1       0.243  -0.185  -0.184  1.00  0.00     0.058 C
HETATM    7  C   LIG A   1       1.600  -0.858  -0.139  1.00  0.00     0.050 C
HETATM    8  C   LIG A   1       2.448  -0.417   1.057  1.00  0.00    -0.031 C
HETATM    9  C   LIG A   1       3.872  -0.319   0.519  1.00  0.00    -0.039 C
HETATM   10  C   LIG A   1       3.806  -0.924  -0.871  1.00  0.00    -0.004 C
HETATM   11  N   LIG A   1       2.456  -0.589  -1.312  1.00  0.00    -0.309 NA
HETATM   12  C   LIG A   1       0.102   1.125  -0.631  1.00  0.00    -0.038 C
HETATM   13  C   LIG A   1      -1.163   1.701  -0.634  1.00  0.00    -0.051 C
HETATM   14  C   LIG A   1      -2.264   0.962  -0.188  1.00  0.00     0.000 C
HETATM   15  C   LIG A   1      -3.562   1.503  -0.174  1.00  0.00    -0.053 C
HETATM   16  H   LIG A   1      -5.639   1.160   0.288  1.00  0.00     0.062 H
HETATM   17  H   LIG A   1      -5.249  -1.166   1.069  1.00  0.00     0.062 H
HETATM   18  H   LIG A   1      -2.963  -2.113   1.041  1.00  0.00     0.065 H
HETATM   19  H   LIG A   1       1.443  -1.944  -0.078  1.00  0.00     0.053 H
HETATM   20  H   LIG A   1       2.389  -1.160   1.861  1.00  0.00     0.029 H
HETATM   21  H   LIG A   1       2.142   0.548   1.477  1.00  0.00     0.029 H
HETATM   22  H   LIG A   1       4.171   0.734   0.462  1.00  0.00     0.028 H
HETATM   23  H   LIG A   1       4.591  -0.838   1.160  1.00  0.00     0.028 H
HETATM   24  H   LIG A   1       3.938  -2.012  -0.829  1.00  0.00     0.043 H
HETATM   25  H   LIG A   1       4.566  -0.507  -1.537  1.00  0.00     0.043 H
HETATM   26  H   LIG A   1       2.164  -1.185  -2.085  1.00  0.00     0.123 H
HETATM   27  H   LIG A   1       0.964   1.688  -0.975  1.00  0.00     0.064 H
HETATM   28  H   LIG A   1      -1.282   2.723  -0.985  1.00  0.00     0.063 H
HETATM   29  H   LIG A   1      -3.739   2.520  -0.514  1.00  0.00     0.063 H
ENDROOT
TORSDOF 0
