REMARK  Name = C:\Users\adria\Documents\proteinFP\_tmp_686647a5\ligand.pdb
REMARK  5 active torsions:
REMARK  status: ('A' for Active; 'I' for Inactive)
REMARK    1  A    between atoms: _2  and  _3
REMARK    2  A    between atoms: _5  and  _6
REMARK    3  A    between atoms: _13  and  _14
REMARK    4  A    between atoms: _18  and  _19
REMARK    5  A    between atoms: _24  and  _25
REMARK                            x       y       z     vdW  Elec       q    Type
REMARK                         _______ _______ _______ _____ _____    ______ ____
ROOT
ATOM      1  C   UNL     1      -0.586   0.000   0.281  0.00  0.00    +0.012 C 
ATOM      2  C   UNL     1       0.537   0.097  -0.776  0.00  0.00    +0.024 C 
ATOM      3  C   UNL     1       1.862  -0.474  -0.228  0.00  0.00    +0.057 C 
ATOM      4  C   UNL     1       1.730  -1.971   0.115  0.00  0.00    +0.019 C 
ATOM      5  C   UNL     1       0.291  -2.405   0.403  0.00  0.00    +0.002 C 
ATOM      6  C   UNL     1      -0.527  -1.317   1.087  0.00  0.00    +0.005 C 
ENDROOT
BRANCH   3   7
ATOM      7  N   UNL     1       3.022  -0.157  -1.087  0.00  0.00    -0.296 NA
ATOM      8  C   UNL     1       4.363  -0.364  -0.481  0.00  0.00    +0.061 C 
ATOM      9  C   UNL     1       5.458  -0.039  -1.524  0.00  0.00    +0.019 C 
ATOM     10  C   UNL     1       5.371  -0.897  -2.785  0.00  0.00    +0.003 C 
ATOM     11  C   UNL     1       4.019  -1.569  -2.932  0.00  0.00    +0.015 C 
ATOM     12  C   UNL     1       2.890  -0.652  -2.471  0.00  0.00    +0.085 C 
BRANCH   8  13
ATOM     13  C   UNL     1       4.555   0.441   0.833  0.00  0.00    +0.021 C 
ATOM     14  C   UNL     1       4.299   1.949   0.739  0.00  0.00    +0.086 C 
ATOM     15  N   UNL     1       5.257   2.605   1.656  0.00  0.00    -0.316 NA
ATOM     16  H   UNL     1       5.994   3.026   1.084  0.00  0.00    +0.122 HD
ATOM     17  C   UNL     1       5.855   1.535   2.462  0.00  0.00    +0.081 C 
ATOM     18  C   UNL     1       5.923   0.359   1.507  0.00  0.00    +0.021 C 
ENDBRANCH   8  13
ENDBRANCH   3   7
BRANCH   1  20
ATOM     19  N   UNL     1      -2.594  -0.826  -1.057  0.00  0.00    -0.266 N 
ATOM     20  C   UNL     1      -1.971   0.328  -0.321  0.00  0.00    +0.087 C 
ATOM     21  C   UNL     1      -3.001   0.697   0.759  0.00  0.00    +0.028 C 
ATOM     22  C   UNL     1      -4.335   0.375   0.093  0.00  0.00    +0.012 C 
ATOM     23  C   UNL     1      -4.013  -0.952  -0.601  0.00  0.00    +0.120 C 
BRANCH  22  24
ATOM     24  C   UNL     1      -5.535   0.280   1.060  0.00  0.00    -0.002 C 
ATOM     25  C   UNL     1      -5.807   1.593   1.819  0.00  0.00    +0.032 C 
ATOM     26  C   UNL     1      -6.903   2.407   1.147  0.00  0.00    +0.160 C 
ATOM     27  O   UNL     1      -8.150   1.717   1.091  0.00  0.00    -0.380 OA
ATOM     28  C   UNL     1      -8.060   0.295   1.029  0.00  0.00    +0.160 C 
ATOM     29  C   UNL     1      -6.804  -0.178   0.312  0.00  0.00    +0.032 C 
ENDBRANCH  22  24
BRANCH  19  31
ATOM     30  N   UNL     1      -1.907  -1.542  -3.352  0.00  0.00    -0.174 NA
ATOM     31  C   UNL     1      -2.221  -1.214  -2.287  0.00  0.00    +0.169 C 
ENDBRANCH  19  31
ENDBRANCH   1  20
TORSDOF 5
