REMARK  Name = C:\Users\adria\Documents\proteinFP\_tmp_197074e7\ligand.pdb
REMARK  6 active torsions:
REMARK  status: ('A' for Active; 'I' for Inactive)
REMARK    1  A    between atoms: _2  and  _3
REMARK    2  A    between atoms: _3  and  _4
REMARK    3  A    between atoms: _4  and  _5
REMARK    4  A    between atoms: _9  and  _10
REMARK    5  A    between atoms: _10  and  _11
REMARK    6  A    between atoms: _16  and  _17
REMARK                            x       y       z     vdW  Elec       q    Type
REMARK                         _______ _______ _______ _____ _____    ______ ____
ROOT
ATOM      1  C   UNL     1      -0.602  -0.527   0.702  0.00  0.00    +0.060 C 
ATOM      2  C   UNL     1      -1.553   0.000  -0.403  0.00  0.00    +0.052 C 
ATOM      3  C   UNL     1      -2.413  -1.145  -0.976  0.00  0.00    +0.011 C 
ATOM      4  C   UNL     1      -1.568  -2.322  -1.450  0.00  0.00    +0.001 C 
ATOM      5  C   UNL     1      -0.666  -2.838  -0.337  0.00  0.00    +0.001 C 
ATOM      6  C   UNL     1       0.225  -1.726   0.211  0.00  0.00    +0.015 C 
ENDROOT
BRANCH   2   7
ATOM      7  C   UNL     1      -2.482   1.095   0.081  0.00  0.00    +0.063 A 
ATOM      8  N   UNL     1      -3.161   0.897   1.239  0.00  0.00    -0.257 NA
ATOM      9  C   UNL     1      -3.989   1.897   1.619  0.00  0.00    +0.130 A 
ATOM     10  C   UNL     1      -4.154   3.048   0.870  0.00  0.00    +0.130 A 
ATOM     11  N   UNL     1      -3.503   3.251  -0.296  0.00  0.00    -0.260 NA
ATOM     12  C   UNL     1      -2.671   2.251  -0.672  0.00  0.00    +0.134 A 
ENDBRANCH   2   7
BRANCH   1  13
ATOM     13  S   UNL     1       0.495   0.749   1.463  0.00  0.00    -0.120 S 
BRANCH  13  15
ATOM     14  C   UNL     1       2.850   0.730  -0.111  0.00  0.00    +0.010 A 
ATOM     15  C   UNL     1       1.534   1.255   0.137  0.00  0.00    +0.022 A 
ATOM     16  C   UNL     1       1.196   2.273  -0.726  0.00  0.00    +0.060 A 
ATOM     17  S   UNL     1       2.388   2.525  -1.921  0.00  0.00    -0.104 S 
ATOM     18  C   UNL     1       3.395   1.327  -1.237  0.00  0.00    +0.053 A 
BRANCH  14  19
ATOM     19  C   UNL     1       3.548  -0.328   0.703  0.00  0.00    +0.269 C 
BRANCH  19  20
ATOM     20  O   UNL     1       4.976  -0.204   0.608  0.00  0.00    -0.462 OA
BRANCH  20  22
ATOM     21  O   UNL     1       5.155  -2.105   1.889  0.00  0.00    -0.255 OA
ATOM     22  C   UNL     1       5.646  -1.176   1.270  0.00  0.00    +0.446 C 
ENDBRANCH  20  22
ENDBRANCH  19  20
ENDBRANCH  14  19
ENDBRANCH  13  15
ENDBRANCH   1  13
TORSDOF 6
