ROOT
HETATM    1  O   LIG A   1       2.284  -0.945  -2.763  1.00  0.00    -0.291 OA
HETATM    2  C   LIG A   1       1.506  -0.595  -1.876  1.00  0.00     0.194 C
HETATM    3  C   LIG A   1       0.924  -1.594  -0.967  1.00  0.00     0.030 C
HETATM    4  C   LIG A   1       1.497  -2.866  -0.856  1.00  0.00    -0.051 C
HETATM    5  C   LIG A   1       0.977  -3.779   0.060  1.00  0.00    -0.061 C
HETATM    6  C   LIG A   1      -0.105  -3.419   0.863  1.00  0.00    -0.062 C
HETATM    7  C   LIG A   1      -0.682  -2.151   0.739  1.00  0.00    -0.052 C
HETATM    8  C   LIG A   1      -0.181  -1.238  -0.197  1.00  0.00     0.011 C
HETATM    9  C   LIG A   1      -0.787   0.099  -0.429  1.00  0.00     0.074 C
HETATM   10  C   LIG A   1      -2.151   0.391   0.080  1.00  0.00     0.000 C
HETATM   11  C   LIG A   1      -3.240  -0.403  -0.296  1.00  0.00    -0.053 C
HETATM   12  C   LIG A   1      -4.514  -0.098   0.188  1.00  0.00    -0.062 C
HETATM   13  C   LIG A   1      -4.697   1.000   1.031  1.00  0.00    -0.062 C
HETATM   14  C   LIG A   1      -3.611   1.802   1.386  1.00  0.00    -0.062 C
HETATM   15  C   LIG A   1      -2.337   1.503   0.906  1.00  0.00    -0.053 C
HETATM   16  N   LIG A   1      -0.199   1.043  -1.081  1.00  0.00    -0.266 NA
HETATM   17  C   LIG A   1       1.174   0.856  -1.592  1.00  0.00     0.157 C
HETATM   18  C   LIG A   1       2.230   1.457  -0.686  1.00  0.00     0.091 C
HETATM   19  C   LIG A   1       3.210   2.294  -1.212  1.00  0.00     0.051 C
HETATM   20  N   LIG A   1       4.193   2.845  -0.458  1.00  0.00    -0.261 NA
HETATM   21  C   LIG A   1       4.164   2.521   0.853  1.00  0.00     0.045 C
HETATM   22  C   LIG A   1       3.203   1.683   1.388  1.00  0.00     0.046 C
HETATM   23  N   LIG A   1       2.223   1.130   0.639  1.00  0.00    -0.255 NA
HETATM   24  H   LIG A   1       2.356  -3.137  -1.466  1.00  0.00     0.063 H
HETATM   25  H   LIG A   1       1.424  -4.766   0.157  1.00  0.00     0.062 H
HETATM   26  H   LIG A   1      -0.499  -4.126   1.590  1.00  0.00     0.062 H
HETATM   27  H   LIG A   1      -1.516  -1.897   1.388  1.00  0.00     0.063 H
HETATM   28  H   LIG A   1      -3.110  -1.244  -0.970  1.00  0.00     0.063 H
HETATM   29  H   LIG A   1      -5.366  -0.709  -0.100  1.00  0.00     0.062 H
HETATM   30  H   LIG A   1      -5.691   1.239   1.401  1.00  0.00     0.062 H
HETATM   31  H   LIG A   1      -3.759   2.665   2.030  1.00  0.00     0.062 H
HETATM   32  H   LIG A   1      -1.491   2.134   1.171  1.00  0.00     0.063 H
HETATM   33  H   LIG A   1       1.193   1.365  -2.564  1.00  0.00     0.071 H
HETATM   34  H   LIG A   1       3.239   2.548  -2.266  1.00  0.00     0.086 H
HETATM   35  H   LIG A   1       4.944   2.957   1.467  1.00  0.00     0.086 H
HETATM   36  H   LIG A   1       3.195   1.432   2.442  1.00  0.00     0.086 H
ENDROOT
TORSDOF 0
