REMARK  Name = C:\Users\adria\Documents\proteinFP\_tmp_db8e8b0d\ligand.pdb
REMARK  1 active torsions:
REMARK  status: ('A' for Active; 'I' for Inactive)
REMARK    1  A    between atoms: _7  and  _8
REMARK                            x       y       z     vdW  Elec       q    Type
REMARK                         _______ _______ _______ _____ _____    ______ ____
ROOT
ATOM      1  C   UNL     1       4.509   1.214   0.331  0.00  0.00    +0.001 A 
ATOM      2  C   UNL     1       3.127   1.363   0.427  0.00  0.00    +0.010 A 
ATOM      3  C   UNL     1       2.271   0.298   0.091  0.00  0.00    +0.001 A 
ATOM      4  C   UNL     1       0.876   0.416   0.177  0.00  0.00    +0.015 A 
ATOM      5  C   UNL     1       0.052  -0.660  -0.166  0.00  0.00    -0.026 A 
ATOM      6  C   UNL     1       0.688  -1.825  -0.577  0.00  0.00    +0.115 A 
ATOM      7  N   UNL     1       2.029  -1.977  -0.673  0.00  0.00    -0.255 NA
ATOM      8  C   UNL     1       2.806  -0.932  -0.345  0.00  0.00    +0.071 A 
ATOM      9  C   UNL     1       4.187  -1.053  -0.431  0.00  0.00    +0.028 A 
ATOM     10  C   UNL     1       5.041   0.004  -0.099  0.00  0.00    +0.002 A 
ENDROOT
BRANCH   5  11
ATOM     11  C   UNL     1      -1.457  -0.592  -0.088  0.00  0.00    +0.023 C 
ATOM     12  C   UNL     1      -2.045   0.571  -0.899  0.00  0.00    +0.023 C 
ATOM     13  C   UNL     1      -3.577   0.533  -0.867  0.00  0.00    +0.081 C 
ATOM     14  N   UNL     1      -4.138   0.031   0.390  0.00  0.00    -0.316 NA
ATOM     15  H   UNL     1      -5.048   0.461   0.555  0.00  0.00    +0.122 HD
ATOM     16  C   UNL     1      -3.254   0.256   1.525  0.00  0.00    +0.081 C 
ATOM     17  C   UNL     1      -1.957  -0.544   1.371  0.00  0.00    +0.023 C 
ENDBRANCH   5  11
TORSDOF 1
