REMARK  Name = C:\Users\adria\Documents\proteinFP\_tmp_abdf6b52\ligand.pdb
REMARK  9 active torsions:
REMARK  status: ('A' for Active; 'I' for Inactive)
REMARK    1  A    between atoms: _2  and  _3
REMARK    2  A    between atoms: _3  and  _4
REMARK    3  A    between atoms: _8  and  _9
REMARK    4  A    between atoms: _11  and  _12
REMARK    5  A    between atoms: _13  and  _15
REMARK    6  A    between atoms: _18  and  _19
REMARK    7  A    between atoms: _19  and  _20
REMARK    8  A    between atoms: _20  and  _21
REMARK    9  A    between atoms: _29  and  _30
REMARK                            x       y       z     vdW  Elec       q    Type
REMARK                         _______ _______ _______ _____ _____    ______ ____
ROOT
ATOM      1  N   UNL     1      -2.187  -1.666  -0.119  0.00  0.00    -0.259 NA
ATOM      2  C   UNL     1      -1.806  -2.502   1.045  0.00  0.00    +0.116 C 
ATOM      3  C   UNL     1      -0.701  -3.558   0.749  0.00  0.00    +0.156 C 
ATOM      4  N   UNL     1      -0.868  -4.320  -0.509  0.00  0.00    -0.303 NA
ATOM      5  H   UNL     1      -0.841  -5.322  -0.296  0.00  0.00    +0.123 HD
ATOM      6  C   UNL     1      -2.117  -3.987  -1.198  0.00  0.00    +0.097 C 
ATOM      7  C   UNL     1      -2.311  -2.467  -1.367  0.00  0.00    +0.103 C 
ENDROOT
BRANCH   1   8
ATOM      8  C   UNL     1      -3.386  -0.780   0.101  0.00  0.00    +0.218 C 
ATOM      9  C   UNL     1      -3.246   0.173   1.360  0.00  0.00    +0.083 C 
ATOM     10  C   UNL     1      -2.107   1.188   1.151  0.00  0.00    +0.016 C 
ATOM     11  C   UNL     1      -2.230   1.917  -0.183  0.00  0.00    +0.029 C 
ATOM     12  C   UNL     1      -2.460   0.941  -1.327  0.00  0.00    +0.163 C 
ATOM     13  O   UNL     1      -3.555   0.062  -1.069  0.00  0.00    -0.346 OA
BRANCH   9  14
ATOM     14  C   UNL     1      -4.512   0.899   1.828  0.00  0.00    -0.021 A 
ATOM     15  C   UNL     1      -5.474   1.431   0.967  0.00  0.00    +0.114 A 
ATOM     16  N   UNL     1      -6.610   2.045   1.375  0.00  0.00    -0.263 NA
ATOM     17  C   UNL     1      -6.811   2.144   2.704  0.00  0.00    +0.111 A 
ATOM     18  C   UNL     1      -5.912   1.682   3.651  0.00  0.00    +0.020 A 
ATOM     19  C   UNL     1      -4.751   1.054   3.203  0.00  0.00    +0.007 A 
ENDBRANCH   9  14
BRANCH   8  21
ATOM     20  N   UNL     1      -5.522  -2.346   0.450  0.00  0.00    -0.192 NA
ATOM     21  C   UNL     1      -4.624  -1.623   0.284  0.00  0.00    +0.115 C 
ENDBRANCH   8  21
ENDBRANCH   1   8
BRANCH   3  22
ATOM     22  C   UNL     1       0.712  -2.936   0.753  0.00  0.00    +0.247 C 
ATOM     23  N   UNL     1       0.794  -1.699   0.135  0.00  0.00    -0.233 N 
ATOM     24  H   UNL     1       0.029  -1.385  -0.465  0.00  0.00    +0.173 HD
ATOM     25  O   UNL     1       1.694  -3.518   1.223  0.00  0.00    -0.273 OA
BRANCH  23  26
ATOM     26  N   UNL     1       2.061  -1.189  -0.150  0.00  0.00    -0.229 N 
ATOM     27  H   UNL     1       2.880  -1.730   0.130  0.00  0.00    +0.173 HD
ATOM     28  C   UNL     1       2.172   0.044  -0.757  0.00  0.00    +0.280 C 
ATOM     29  O   UNL     1       1.212   0.737  -1.087  0.00  0.00    -0.267 OA
BRANCH  28  30
ATOM     30  C   UNL     1       3.571   0.480  -1.001  0.00  0.00    +0.145 A 
ATOM     31  N   UNL     1       4.565  -0.386  -0.656  0.00  0.00    -0.247 NA
ATOM     32  C   UNL     1       5.821   0.045  -0.935  0.00  0.00    +0.135 A 
ATOM     33  C   UNL     1       6.092   1.287  -1.513  0.00  0.00    +0.061 A 
ATOM     34  N   UNL     1       5.087   2.143  -1.841  0.00  0.00    -0.256 NA
ATOM     35  C   UNL     1       3.825   1.713  -1.577  0.00  0.00    +0.144 A 
BRANCH  33  36
ATOM     36  C   UNL     1       7.510   1.686  -1.840  0.00  0.00    +0.072 C 
BRANCH  36  37
ATOM     37  C   UNL     1       7.857   3.078  -1.300  0.00  0.00    +0.084 C 
BRANCH  37  38
ATOM     38  N   UNL     1       9.270   3.392  -1.531  0.00  0.00    -0.330 NA
ATOM     39  H   UNL     1       9.860   2.796  -0.951  0.00  0.00    +0.118 HD
ATOM     40  H   UNL     1       9.456   4.347  -1.221  0.00  0.00    +0.118 HD
ENDBRANCH  37  38
ENDBRANCH  36  37
ENDBRANCH  33  36
ENDBRANCH  28  30
ENDBRANCH  23  26
ENDBRANCH   3  22
TORSDOF 9
