REMARK  Name = C:\Users\adria\Documents\proteinFP\_tmp_e4612518\ligand.pdb
REMARK  1 active torsions:
REMARK  status: ('A' for Active; 'I' for Inactive)
REMARK    1  A    between atoms: _4  and  _5
REMARK                            x       y       z     vdW  Elec       q    Type
REMARK                         _______ _______ _______ _____ _____    ______ ____
ROOT
ATOM      1  C   UNL     1       4.033   0.070   0.525  0.00  0.00    +0.130 A 
ATOM      2  N   UNL     1       3.345   0.789   1.431  0.00  0.00    -0.258 NA
ATOM      3  C   UNL     1       2.005   0.858   1.202  0.00  0.00    +0.154 A 
ATOM      4  C   UNL     1       1.342   0.233   0.135  0.00  0.00    +0.140 A 
ATOM      5  N   UNL     1       2.077  -0.469  -0.760  0.00  0.00    -0.237 NA
ATOM      6  C   UNL     1       3.413  -0.541  -0.547  0.00  0.00    +0.132 A 
ENDROOT
BRANCH   4   7
ATOM      7  N   UNL     1      -0.035   0.344  -0.053  0.00  0.00    -0.314 N 
ATOM      8  C   UNL     1      -0.907   0.352   1.125  0.00  0.00    +0.106 C 
ATOM      9  C   UNL     1      -2.120  -0.557   0.930  0.00  0.00    +0.019 C 
ATOM     10  C   UNL     1      -2.905  -0.214  -0.333  0.00  0.00    +0.003 C 
ATOM     11  C   UNL     1      -2.007   0.226  -1.488  0.00  0.00    +0.019 C 
ATOM     12  C   UNL     1      -0.559  -0.220  -1.299  0.00  0.00    +0.106 C 
ENDBRANCH   4   7
TORSDOF 1
