ROOT
HETATM    1  C   LIG A   1       4.940  -0.226  -0.386  1.00  0.00    -0.060 C
HETATM    2  C   LIG A   1       4.385   0.518  -1.419  1.00  0.00    -0.060 C
HETATM    3  C   LIG A   1       3.006   0.731  -1.449  1.00  0.00    -0.034 C
HETATM    4  C   LIG A   1       2.170   0.214  -0.466  1.00  0.00     0.091 C
HETATM    5  N   LIG A   1       0.842   0.443  -0.537  1.00  0.00    -0.228 NA
HETATM    6  C   LIG A   1       0.049  -0.082   0.424  1.00  0.00     0.147 C
HETATM    7  N   LIG A   1      -1.341   0.144   0.395  1.00  0.00    -0.353 NA
HETATM    8  C   LIG A   1      -2.138  -1.103   0.403  1.00  0.00     0.032 C
HETATM    9  C   LIG A   1      -3.650  -0.777   0.455  1.00  0.00     0.013 C
HETATM   10  N   LIG A   1      -4.097   0.122  -0.624  1.00  0.00    -0.313 NA
HETATM   11  C   LIG A   1      -3.270   1.344  -0.611  1.00  0.00     0.013 C
HETATM   12  C   LIG A   1      -1.753   1.058  -0.695  1.00  0.00     0.032 C
HETATM   13  C   LIG A   1       0.643  -0.806   1.461  1.00  0.00     0.070 C
HETATM   14  N   LIG A   1       1.972  -1.059   1.560  1.00  0.00    -0.251 NA
HETATM   15  C   LIG A   1       2.737  -0.543   0.586  1.00  0.00     0.089 C
HETATM   16  C   LIG A   1       4.112  -0.750   0.607  1.00  0.00    -0.034 C
HETATM   17  H   LIG A   1       6.013  -0.401  -0.349  1.00  0.00     0.062 H
HETATM   18  H   LIG A   1       5.017   0.933  -2.199  1.00  0.00     0.062 H
HETATM   19  H   LIG A   1       2.569   1.313  -2.256  1.00  0.00     0.065 H
HETATM   20  H   LIG A   1      -1.921  -1.694  -0.497  1.00  0.00     0.051 H
HETATM   21  H   LIG A   1      -1.904  -1.721   1.277  1.00  0.00     0.051 H
HETATM   22  H   LIG A   1      -3.889  -0.321   1.425  1.00  0.00     0.045 H
HETATM   23  H   LIG A   1      -4.218  -1.711   0.390  1.00  0.00     0.045 H
HETATM   24  H   LIG A   1      -5.070   0.379  -0.463  1.00  0.00     0.122 H
HETATM   25  H   LIG A   1      -3.484   1.914   0.302  1.00  0.00     0.045 H
HETATM   26  H   LIG A   1      -3.562   1.973  -1.459  1.00  0.00     0.045 H
HETATM   27  H   LIG A   1      -1.224   2.016  -0.611  1.00  0.00     0.051 H
HETATM   28  H   LIG A   1      -1.526   0.619  -1.676  1.00  0.00     0.051 H
HETATM   29  H   LIG A   1       0.050  -1.197   2.280  1.00  0.00     0.088 H
HETATM   30  H   LIG A   1       4.543  -1.332   1.418  1.00  0.00     0.065 H
ENDROOT
TORSDOF 0
