ROOT
HETATM    1  C   LIG A   1      -5.491  -0.123   1.615  1.00  0.00    -0.062 C
HETATM    2  C   LIG A   1      -4.419  -0.269   2.492  1.00  0.00    -0.062 C
HETATM    3  C   LIG A   1      -3.123  -0.403   1.994  1.00  0.00    -0.057 C
HETATM    4  C   LIG A   1      -2.882  -0.389   0.611  1.00  0.00    -0.028 C
HETATM    5  C   LIG A   1      -3.968  -0.228  -0.269  1.00  0.00    -0.042 C
HETATM    6  C   LIG A   1      -5.268  -0.107   0.239  1.00  0.00    -0.059 C
HETATM    7  C   LIG A   1      -3.734  -0.243  -1.758  1.00  0.00    -0.015 C
HETATM    8  C   LIG A   1      -2.289   0.124  -2.112  1.00  0.00     0.003 C
HETATM    9  N   LIG A   1      -1.347  -0.729  -1.375  1.00  0.00    -0.295 NA
HETATM   10  C   LIG A   1       0.053  -0.389  -1.673  1.00  0.00     0.006 C
HETATM   11  C   LIG A   1       0.432   0.760  -0.728  1.00  0.00    -0.002 C
HETATM   12  C   LIG A   1       1.876   0.723  -0.277  1.00  0.00    -0.043 C
HETATM   13  C   LIG A   1       2.744   1.762  -0.627  1.00  0.00    -0.057 C
HETATM   14  C   LIG A   1       4.083   1.739  -0.218  1.00  0.00    -0.036 C
HETATM   15  C   LIG A   1       4.599   0.700   0.541  1.00  0.00     0.070 C
HETATM   16  N   LIG A   1       5.893   0.726   0.908  1.00  0.00    -0.256 NA
HETATM   17  C   LIG A   1       6.362  -0.304   1.646  1.00  0.00     0.028 C
HETATM   18  C   LIG A   1       5.593  -1.380   2.045  1.00  0.00    -0.043 C
HETATM   19  C   LIG A   1       4.257  -1.403   1.664  1.00  0.00    -0.051 C
HETATM   20  C   LIG A   1       3.733  -0.353   0.898  1.00  0.00     0.000 C
HETATM   21  C   LIG A   1       2.386  -0.334   0.490  1.00  0.00    -0.049 C
HETATM   22  C   LIG A   1      -0.587   0.682   0.416  1.00  0.00    -0.025 C
HETATM   23  C   LIG A   1      -1.468  -0.531   0.089  1.00  0.00     0.036 C
HETATM   24  H   LIG A   1      -6.501  -0.026   2.003  1.00  0.00     0.062 H
HETATM   25  H   LIG A   1      -4.593  -0.284   3.565  1.00  0.00     0.062 H
HETATM   26  H   LIG A   1      -2.298  -0.524   2.693  1.00  0.00     0.063 H
HETATM   27  H   LIG A   1      -6.114  -0.003  -0.437  1.00  0.00     0.063 H
HETATM   28  H   LIG A   1      -3.969  -1.246  -2.136  1.00  0.00     0.033 H
HETATM   29  H   LIG A   1      -4.409   0.467  -2.250  1.00  0.00     0.033 H
HETATM   30  H   LIG A   1      -2.153  -0.022  -3.191  1.00  0.00     0.043 H
HETATM   31  H   LIG A   1      -2.120   1.190  -1.909  1.00  0.00     0.043 H
HETATM   32  H   LIG A   1       0.213  -0.124  -2.725  1.00  0.00     0.044 H
HETATM   33  H   LIG A   1       0.662  -1.283  -1.490  1.00  0.00     0.044 H
HETATM   34  H   LIG A   1       0.252   1.707  -1.256  1.00  0.00     0.037 H
HETATM   35  H   LIG A   1       2.394   2.603  -1.222  1.00  0.00     0.063 H
HETATM   36  H   LIG A   1       4.742   2.557  -0.500  1.00  0.00     0.065 H
HETATM   37  H   LIG A   1       7.412  -0.236   1.916  1.00  0.00     0.084 H
HETATM   38  H   LIG A   1       6.022  -2.181   2.636  1.00  0.00     0.064 H
HETATM   39  H   LIG A   1       3.631  -2.239   1.964  1.00  0.00     0.063 H
HETATM   40  H   LIG A   1       1.732  -1.157   0.774  1.00  0.00     0.063 H
HETATM   41  H   LIG A   1      -1.176   1.609   0.431  1.00  0.00     0.029 H
HETATM   42  H   LIG A   1      -0.131   0.584   1.408  1.00  0.00     0.029 H
HETATM   43  H   LIG A   1      -1.033  -1.423   0.560  1.00  0.00     0.052 H
ENDROOT
TORSDOF 0
