REMARK  Name = C:\Users\adria\Documents\proteinFP\_tmp_8ec454c5\ligand.pdb
REMARK  7 active torsions:
REMARK  status: ('A' for Active; 'I' for Inactive)
REMARK    1  A    between atoms: _1  and  _2
REMARK    2  A    between atoms: _2  and  _3
REMARK    3  A    between atoms: _2  and  _9
REMARK    4  A    between atoms: _3  and  _4
REMARK    5  A    between atoms: _11  and  _12
REMARK    6  A    between atoms: _22  and  _23
REMARK    7  A    between atoms: _23  and  _24
REMARK                            x       y       z     vdW  Elec       q    Type
REMARK                         _______ _______ _______ _____ _____    ______ ____
ROOT
ATOM      1  C   UNL     1       1.398   0.361   0.420  0.00  0.00    +0.125 A 
ATOM      2  O   UNL     1       0.935   1.137   1.442  0.00  0.00    -0.443 OA
ATOM      3  C   UNL     1      -0.377   0.834   1.628  0.00  0.00    +0.213 A 
ATOM      4  C   UNL     1      -0.761  -0.161   0.749  0.00  0.00    +0.045 A 
ATOM      5  C   UNL     1       0.384  -0.453  -0.042  0.00  0.00    +0.057 A 
ENDROOT
BRANCH   4   6
ATOM      6  C   UNL     1      -2.078  -0.770   0.695  0.00  0.00    -0.005 A 
ATOM      7  C   UNL     1      -3.012  -0.442  -0.326  0.00  0.00    -0.010 A 
ATOM      8  C   UNL     1      -2.769   0.505  -1.351  0.00  0.00    +0.009 A 
ATOM      9  C   UNL     1      -3.730   0.799  -2.320  0.00  0.00    +0.001 A 
ATOM     10  C   UNL     1      -4.960   0.156  -2.292  0.00  0.00    +0.001 A 
ATOM     11  C   UNL     1      -5.231  -0.777  -1.293  0.00  0.00    +0.008 A 
ATOM     12  C   UNL     1      -4.277  -1.082  -0.308  0.00  0.00    -0.017 A 
ATOM     13  C   UNL     1      -4.577  -2.012   0.699  0.00  0.00    +0.008 A 
ATOM     14  C   UNL     1      -3.651  -2.319   1.693  0.00  0.00    +0.001 A 
ATOM     15  C   UNL     1      -2.406  -1.701   1.692  0.00  0.00    +0.009 A 
ENDBRANCH   4   6
BRANCH   3  16
ATOM     16  N   UNL     1      -1.164   1.480   2.668  0.00  0.00    -0.192 N 
ATOM     17  H   UNL     1      -0.581   2.089   3.243  0.00  0.00    +0.176 HD
BRANCH  16  18
ATOM     18  S   UNL     1      -2.459   2.385   2.056  0.00  0.00    +0.035 S 
ATOM     19  H   UNL     1      -3.338   1.532   1.482  0.00  0.00    +0.233 HD
ATOM     20  O   UNL     1      -3.138   2.949   3.204  0.00  0.00    -0.158 OA
ATOM     21  O   UNL     1      -1.955   3.240   1.002  0.00  0.00    -0.158 OA
ENDBRANCH  16  18
ENDBRANCH   3  16
BRANCH   1  22
ATOM     22  C   UNL     1       2.829   0.578   0.025  0.00  0.00    +0.125 C 
BRANCH  22  23
ATOM     23  N   UNL     1       2.876   1.613  -1.023  0.00  0.00    -0.321 NA
ATOM     24  H   UNL     1       2.458   2.463  -0.642  0.00  0.00    +0.119 HD
ATOM     25  H   UNL     1       2.279   1.335  -1.800  0.00  0.00    +0.119 HD
ENDBRANCH  22  23
BRANCH  22  26
ATOM     26  C   UNL     1       3.495  -0.737  -0.430  0.00  0.00    +0.100 C 
BRANCH  26  27
ATOM     27  C   UNL     1       4.980  -0.647  -0.456  0.00  0.00    +0.107 A 
ATOM     28  O   UNL     1       5.643  -1.295   0.545  0.00  0.00    -0.468 OA
ATOM     29  C   UNL     1       6.969  -1.093   0.337  0.00  0.00    +0.195 A 
ATOM     30  C   UNL     1       7.169  -0.324  -0.785  0.00  0.00    +0.041 A 
ATOM     31  C   UNL     1       5.883  -0.036  -1.300  0.00  0.00    +0.045 A 
ENDBRANCH  26  27
ENDBRANCH  22  26
ENDBRANCH   1  22
TORSDOF 7
