REMARK  Name = C:\Users\adria\Documents\proteinFP\_tmp_58f6f935\ligand.pdb
REMARK  5 active torsions:
REMARK  status: ('A' for Active; 'I' for Inactive)
REMARK    1  A    between atoms: _2  and  _3
REMARK    2  A    between atoms: _3  and  _4
REMARK    3  A    between atoms: _8  and  _9
REMARK    4  A    between atoms: _12  and  _13
REMARK    5  A    between atoms: _27  and  _28
REMARK                            x       y       z     vdW  Elec       q    Type
REMARK                         _______ _______ _______ _____ _____    ______ ____
ROOT
ATOM      1  N   UNL     1       0.505  -1.358  -0.312  0.00  0.00    -0.251 NA
ATOM      2  C   UNL     1      -0.994  -1.530  -0.290  0.00  0.00    +0.135 C 
ATOM      3  C   UNL     1      -1.518  -2.501   0.834  0.00  0.00    +0.164 C 
ATOM      4  N   UNL     1      -0.720  -3.754   1.025  0.00  0.00    -0.303 NA
ATOM      5  H   UNL     1      -0.790  -4.296   0.161  0.00  0.00    +0.123 HD
ATOM      6  C   UNL     1       0.678  -3.361   1.217  0.00  0.00    +0.097 C 
ATOM      7  C   UNL     1       1.220  -2.613  -0.012  0.00  0.00    +0.104 C 
ENDROOT
BRANCH   2   8
ATOM      8  C   UNL     1      -1.734  -0.198  -0.059  0.00  0.00    +0.061 A 
ATOM      9  N   UNL     1      -1.439   0.499   1.073  0.00  0.00    -0.250 NA
ATOM     10  C   UNL     1      -2.064   1.667   1.296  0.00  0.00    +0.071 A 
ATOM     11  C   UNL     1      -1.763   2.391   2.441  0.00  0.00    +0.028 A 
ATOM     12  C   UNL     1      -2.382   3.613   2.724  0.00  0.00    +0.002 A 
ATOM     13  C   UNL     1      -3.328   4.128   1.845  0.00  0.00    +0.001 A 
ATOM     14  C   UNL     1      -3.650   3.420   0.688  0.00  0.00    +0.010 A 
ATOM     15  C   UNL     1      -3.024   2.193   0.409  0.00  0.00    +0.000 A 
ATOM     16  C   UNL     1      -3.326   1.456  -0.741  0.00  0.00    +0.012 A 
ATOM     17  C   UNL     1      -2.678   0.249  -0.979  0.00  0.00    +0.025 A 
ENDBRANCH   2   8
BRANCH   1  18
ATOM     18  C   UNL     1       1.030  -0.656  -1.536  0.00  0.00    +0.219 C 
ATOM     19  C   UNL     1       2.564  -0.264  -1.370  0.00  0.00    +0.083 C 
ATOM     20  C   UNL     1       3.040   0.661  -2.513  0.00  0.00    +0.016 C 
ATOM     21  C   UNL     1       2.103   1.842  -2.718  0.00  0.00    +0.029 C 
ATOM     22  C   UNL     1       0.671   1.364  -2.861  0.00  0.00    +0.163 C 
ATOM     23  O   UNL     1       0.279   0.554  -1.760  0.00  0.00    -0.346 OA
BRANCH  19  24
ATOM     24  C   UNL     1       2.987   0.347  -0.033  0.00  0.00    -0.021 A 
ATOM     25  C   UNL     1       4.279   0.122   0.446  0.00  0.00    +0.114 A 
ATOM     26  N   UNL     1       4.767   0.613   1.608  0.00  0.00    -0.263 NA
ATOM     27  C   UNL     1       3.928   1.375   2.340  0.00  0.00    +0.111 A 
ATOM     28  C   UNL     1       2.631   1.669   1.959  0.00  0.00    +0.020 A 
ATOM     29  C   UNL     1       2.160   1.151   0.756  0.00  0.00    +0.007 A 
ENDBRANCH  19  24
BRANCH  18  31
ATOM     30  N   UNL     1       0.837  -2.241  -3.680  0.00  0.00    -0.192 NA
ATOM     31  C   UNL     1       0.911  -1.546  -2.750  0.00  0.00    +0.115 C 
ENDBRANCH  18  31
ENDBRANCH   1  18
BRANCH   3  32
ATOM     32  C   UNL     1      -2.968  -2.950   0.544  0.00  0.00    +0.229 C 
ATOM     33  O   UNL     1      -3.587  -2.725  -0.489  0.00  0.00    -0.274 OA
ATOM     34  N   UNL     1      -3.527  -3.699   1.548  0.00  0.00    -0.328 N 
ATOM     35  H   UNL     1      -2.886  -4.179   2.171  0.00  0.00    +0.145 HD
ATOM     36  H   UNL     1      -4.408  -4.147   1.339  0.00  0.00    +0.145 HD
ENDBRANCH   3  32
TORSDOF 5
