REMARK  Name = C:\Users\adria\Documents\proteinFP\_tmp_70feec02\ligand.pdb
REMARK  5 active torsions:
REMARK  status: ('A' for Active; 'I' for Inactive)
REMARK    1  A    between atoms: _1  and  _2
REMARK    2  A    between atoms: _3  and  _4
REMARK    3  A    between atoms: _9  and  _10
REMARK    4  A    between atoms: _14  and  _15
REMARK    5  A    between atoms: _18  and  _19
REMARK                            x       y       z     vdW  Elec       q    Type
REMARK                         _______ _______ _______ _____ _____    ______ ____
ROOT
ATOM      1  C   UNL     1       0.003  -2.003   1.638  0.00  0.00    +0.047 A 
ATOM      2  C   UNL     1       1.303  -1.804   1.119  0.00  0.00    +0.031 A 
ATOM      3  C   UNL     1       2.540  -2.528   1.256  0.00  0.00    +0.009 A 
ATOM      4  C   UNL     1       2.929  -3.694   1.951  0.00  0.00    +0.010 A 
ATOM      5  C   UNL     1       4.253  -4.141   1.874  0.00  0.00    +0.001 A 
ATOM      6  C   UNL     1       5.191  -3.444   1.117  0.00  0.00    +0.002 A 
ATOM      7  C   UNL     1       4.834  -2.287   0.418  0.00  0.00    +0.026 A 
ATOM      8  C   UNL     1       3.504  -1.860   0.508  0.00  0.00    +0.048 A 
ATOM      9  N   UNL     1       2.878  -0.785  -0.062  0.00  0.00    -0.353 N 
ATOM     10  H   UNL     1       3.336  -0.118  -0.660  0.00  0.00    +0.166 HD
ATOM     11  C   UNL     1       1.542  -0.719   0.277  0.00  0.00    +0.072 A 
ATOM     12  C   UNL     1       0.562   0.224  -0.109  0.00  0.00    +0.076 A 
ATOM     13  C   UNL     1      -0.743   0.057   0.474  0.00  0.00    +0.067 A 
ATOM     14  C   UNL     1      -1.014  -1.061   1.317  0.00  0.00    +0.061 A 
ENDROOT
BRANCH  12  15
ATOM     15  N   UNL     1       0.828   1.258  -1.030  0.00  0.00    -0.324 N 
ATOM     16  C   UNL     1       1.134   0.796  -2.401  0.00  0.00    +0.120 C 
ATOM     17  C   UNL     1       1.360   2.010  -3.331  0.00  0.00    +0.100 C 
ATOM     18  N   UNL     1       2.406   2.957  -2.898  0.00  0.00    -0.313 NA
ATOM     19  H   UNL     1       3.210   2.899  -3.519  0.00  0.00    +0.122 HD
ATOM     20  C   UNL     1       2.830   2.713  -1.511  0.00  0.00    +0.100 C 
ATOM     21  C   UNL     1       1.682   2.361  -0.535  0.00  0.00    +0.120 C 
ENDBRANCH  12  15
BRANCH  13  22
ATOM     22  N   UNL     1      -1.812   0.963   0.239  0.00  0.00    -0.309 N 
ATOM     23  C   UNL     1      -2.232   1.131  -1.149  0.00  0.00    +0.160 C 
ATOM     24  C   UNL     1      -2.293   2.644  -1.381  0.00  0.00    +0.044 C 
ATOM     25  C   UNL     1      -2.503   3.206   0.015  0.00  0.00    +0.022 C 
ATOM     26  C   UNL     1      -1.652   2.278   0.872  0.00  0.00    +0.107 C 
BRANCH  23  27
ATOM     27  N   UNL     1      -3.526   0.517  -1.153  0.00  0.00    -0.300 N 
ATOM     28  H   UNL     1      -3.753   0.023  -0.303  0.00  0.00    +0.150 HD
ATOM     29  C   UNL     1      -4.196   0.254  -2.309  0.00  0.00    +0.326 C 
ATOM     30  O   UNL     1      -3.857   0.607  -3.430  0.00  0.00    -0.279 OA
ENDBRANCH  23  27
ENDBRANCH  13  22
BRANCH  14  31
ATOM     31  C   UNL     1      -2.364  -1.277   1.851  0.00  0.00    +0.138 A 
ATOM     32  O   UNL     1      -2.950  -2.470   1.520  0.00  0.00    -0.463 OA
ATOM     33  C   UNL     1      -4.182  -2.484   2.091  0.00  0.00    +0.196 A 
ATOM     34  C   UNL     1      -4.401  -1.324   2.793  0.00  0.00    +0.042 A 
ATOM     35  C   UNL     1      -3.228  -0.545   2.642  0.00  0.00    +0.050 A 
ENDBRANCH  14  31
BRANCH   1  36
ATOM     36  N   UNL     1      -0.274  -3.116   2.483  0.00  0.00    -0.357 N 
ATOM     37  H   UNL     1      -0.622  -2.768   3.376  0.00  0.00    +0.142 HD
ATOM     38  H   UNL     1      -1.063  -3.621   2.070  0.00  0.00    +0.142 HD
ENDBRANCH   1  36
TORSDOF 5
