REMARK  Name = C:\Users\adria\Documents\proteinFP\_tmp_0ce4216d\ligand.pdb
REMARK  8 active torsions:
REMARK  status: ('A' for Active; 'I' for Inactive)
REMARK    1  A    between atoms: _1  and  _2
REMARK    2  A    between atoms: _2  and  _3
REMARK    3  A    between atoms: _3  and  _4
REMARK    4  A    between atoms: _4  and  _5
REMARK    5  A    between atoms: _5  and  _6
REMARK    6  A    between atoms: _6  and  _7
REMARK    7  A    between atoms: _7  and  _8
REMARK    8  A    between atoms: _8  and  _9
REMARK                            x       y       z     vdW  Elec       q    Type
REMARK                         _______ _______ _______ _____ _____    ______ ____
ROOT
ATOM      1  C   UNL     1      -0.792  -2.040   0.228  0.00  0.00    +0.104 C 
ENDROOT
BRANCH   1   2
ATOM      2  N   UNL     1      -1.821  -1.354   1.003  0.00  0.00    -0.328 N 
ATOM      3  H   UNL     1      -1.457  -0.637   1.629  0.00  0.00    +0.147 HD
BRANCH   2   4
ATOM      4  C   UNL     1      -2.869  -0.756   0.316  0.00  0.00    +0.137 A 
ATOM      5  N   UNL     1      -3.142   0.516   0.671  0.00  0.00    -0.237 NA
ATOM      6  C   UNL     1      -4.168   1.113   0.019  0.00  0.00    +0.132 A 
ATOM      7  C   UNL     1      -4.905   0.473  -0.960  0.00  0.00    +0.130 A 
ATOM      8  N   UNL     1      -4.655  -0.799  -1.330  0.00  0.00    -0.258 NA
ATOM      9  C   UNL     1      -3.632  -1.395  -0.664  0.00  0.00    +0.154 A 
ENDBRANCH   2   4
ENDBRANCH   1   2
BRANCH   1  10
ATOM     10  C   UNL     1       0.011  -1.111  -0.687  0.00  0.00    +0.034 C 
BRANCH  10  11
ATOM     11  C   UNL     1       0.851  -0.095   0.091  0.00  0.00    +0.082 C 
BRANCH  11  12
ATOM     12  N   UNL     1       1.673   0.678  -0.845  0.00  0.00    -0.316 NA
ATOM     13  H   UNL     1       1.060   1.110  -1.538  0.00  0.00    +0.122 HD
BRANCH  12  14
ATOM     14  C   UNL     1       2.438   1.738  -0.182  0.00  0.00    +0.080 C 
BRANCH  14  16
ATOM     15  C   UNL     1       4.585   0.374   0.000  0.00  0.00    +0.005 C 
ATOM     16  C   UNL     1       3.568   1.243   0.726  0.00  0.00    +0.012 C 
ENDBRANCH  14  16
ENDBRANCH  12  14
ENDBRANCH  11  12
ENDBRANCH  10  11
ENDBRANCH   1  10
TORSDOF 7
