REMARK  Name = C:\Users\adria\Documents\proteinFP\_tmp_537d5a07\ligand.pdb
REMARK  4 active torsions:
REMARK  status: ('A' for Active; 'I' for Inactive)
REMARK    1  A    between atoms: _1  and  _2
REMARK    2  A    between atoms: _2  and  _3
REMARK    3  A    between atoms: _3  and  _4
REMARK    4  A    between atoms: _9  and  _10
REMARK                            x       y       z     vdW  Elec       q    Type
REMARK                         _______ _______ _______ _____ _____    ______ ____
ROOT
ATOM      1  C   UNL     1      -0.861   0.401  -0.235  0.00  0.00    +0.070 A 
ATOM      2  C   UNL     1       0.426   0.967  -0.152  0.00  0.00    +0.112 A 
ATOM      3  N   UNL     1       0.583   2.329  -0.126  0.00  0.00    -0.250 NA
ATOM      4  C   UNL     1      -0.535   3.081  -0.215  0.00  0.00    +0.131 A 
ATOM      5  C   UNL     1      -1.788   2.523  -0.317  0.00  0.00    +0.131 A 
ATOM      6  N   UNL     1      -1.978   1.188  -0.326  0.00  0.00    -0.256 NA
ENDROOT
BRANCH   2   7
ATOM      7  C   UNL     1       1.692   0.209  -0.085  0.00  0.00    +0.109 A 
ATOM      8  N   UNL     1       1.747  -1.021  -0.668  0.00  0.00    -0.250 NA
ATOM      9  C   UNL     1       2.932  -1.673  -0.599  0.00  0.00    +0.131 A 
ATOM     10  C   UNL     1       4.043  -1.137   0.024  0.00  0.00    +0.130 A 
ATOM     11  N   UNL     1       4.021   0.080   0.605  0.00  0.00    -0.260 NA
ATOM     12  C   UNL     1       2.831   0.734   0.529  0.00  0.00    +0.140 A 
ENDBRANCH   2   7
BRANCH   1  13
ATOM     13  C   UNL     1      -1.088  -1.096  -0.226  0.00  0.00    +0.072 C 
BRANCH  13  14
ATOM     14  C   UNL     1      -2.544  -1.552  -0.037  0.00  0.00    +0.084 C 
BRANCH  14  15
ATOM     15  N   UNL     1      -3.069  -1.232   1.294  0.00  0.00    -0.330 NA
ATOM     16  H   UNL     1      -4.057  -1.478   1.324  0.00  0.00    +0.118 HD
ATOM     17  H   UNL     1      -3.041  -0.212   1.388  0.00  0.00    +0.118 HD
ENDBRANCH  14  15
ENDBRANCH  13  14
ENDBRANCH   1  13
TORSDOF 4
