ROOT
HETATM    1  C   LIG A   1      -3.245  -0.586  -0.535  1.00  0.00    -0.061 C
HETATM    2  C   LIG A   1      -1.761  -0.930  -0.463  1.00  0.00    -0.030 C
HETATM    3  C   LIG A   1      -0.807   0.173  -0.043  1.00  0.00    -0.037 C
HETATM    4  C   LIG A   1      -1.266   1.457   0.266  1.00  0.00    -0.040 C
HETATM    5  C   LIG A   1      -0.353   2.424   0.642  1.00  0.00     0.028 C
HETATM    6  N   LIG A   1       0.973   2.212   0.734  1.00  0.00    -0.256 NA
HETATM    7  C   LIG A   1       1.435   0.987   0.442  1.00  0.00     0.070 C
HETATM    8  C   LIG A   1       2.803   0.771   0.537  1.00  0.00    -0.036 C
HETATM    9  C   LIG A   1       3.377  -0.469   0.253  1.00  0.00    -0.060 C
HETATM   10  C   LIG A   1       2.567  -1.525  -0.136  1.00  0.00    -0.062 C
HETATM   11  C   LIG A   1       1.189  -1.333  -0.240  1.00  0.00    -0.053 C
HETATM   12  C   LIG A   1       0.593  -0.080   0.045  1.00  0.00     0.003 C
HETATM   13  H   LIG A   1      -3.436   0.211  -1.262  1.00  0.00     0.023 H
HETATM   14  H   LIG A   1      -3.818  -1.466  -0.848  1.00  0.00     0.023 H
HETATM   15  H   LIG A   1      -3.630  -0.268   0.440  1.00  0.00     0.023 H
HETATM   16  H   LIG A   1      -1.458  -1.286  -1.455  1.00  0.00     0.031 H
HETATM   17  H   LIG A   1      -1.652  -1.764   0.242  1.00  0.00     0.031 H
HETATM   18  H   LIG A   1      -2.315   1.726   0.222  1.00  0.00     0.064 H
HETATM   19  H   LIG A   1      -0.676   3.431   0.888  1.00  0.00     0.084 H
HETATM   20  H   LIG A   1       3.442   1.596   0.842  1.00  0.00     0.065 H
HETATM   21  H   LIG A   1       4.452  -0.602   0.338  1.00  0.00     0.062 H
HETATM   22  H   LIG A   1       3.002  -2.496  -0.360  1.00  0.00     0.062 H
HETATM   23  H   LIG A   1       0.582  -2.181  -0.547  1.00  0.00     0.063 H
ENDROOT
TORSDOF 0
