REMARK  Name = C:\Users\adria\Documents\proteinFP\_tmp_ef7b5885\ligand.pdb
REMARK  4 active torsions:
REMARK  status: ('A' for Active; 'I' for Inactive)
REMARK    1  A    between atoms: _1  and  _2
REMARK    2  A    between atoms: _2  and  _3
REMARK    3  A    between atoms: _3  and  _6
REMARK    4  A    between atoms: _6  and  _7
REMARK                            x       y       z     vdW  Elec       q    Type
REMARK                         _______ _______ _______ _____ _____    ______ ____
ROOT
ATOM      1  N   UNL     1       0.316  -0.688  -0.757  0.00  0.00    -0.211 N 
ATOM      2  H   UNL     1       0.248  -1.707  -0.681  0.00  0.00    +0.174 HD
ENDROOT
BRANCH   1   3
ATOM      3  C   UNL     1       1.590  -0.225  -0.181  0.00  0.00    +0.120 A 
ATOM      4  C   UNL     1       2.302  -0.912   0.767  0.00  0.00    +0.153 A 
ATOM      5  F   UNL     1       1.900  -2.078   1.292  0.00  0.00    -0.203 F 
ATOM      6  C   UNL     1       3.506  -0.269   1.137  0.00  0.00    +0.048 A 
ATOM      7  C   UNL     1       3.684   0.901   0.426  0.00  0.00    +0.050 A 
ATOM      8  S   UNL     1       2.399   1.186  -0.680  0.00  0.00    -0.078 S 
ENDBRANCH   1   3
BRANCH   1   9
ATOM      9  S   UNL     1      -1.032  -0.055   0.075  0.00  0.00    +0.043 S 
ATOM     10  O   UNL     1      -0.743   1.272   0.569  0.00  0.00    -0.155 OA
ATOM     11  O   UNL     1      -1.485  -1.116   0.949  0.00  0.00    -0.155 OA
BRANCH   9  13
ATOM     12  C   UNL     1      -3.532   0.596  -0.816  0.00  0.00    +0.030 C 
ATOM     13  C   UNL     1      -2.184   0.084  -1.283  0.00  0.00    +0.185 C 
ENDBRANCH   9  13
ENDBRANCH   1   9
TORSDOF 3
