ROOT
HETATM    1  N   LIG A   1      -1.834   2.488   0.215  1.00  0.00    -0.366 NA
HETATM    2  C   LIG A   1      -1.255   1.590  -0.639  1.00  0.00     0.250 C
HETATM    3  O   LIG A   1      -0.418   1.919  -1.465  1.00  0.00    -0.269 OA
HETATM    4  C   LIG A   1      -1.737   0.202  -0.522  1.00  0.00     0.063 C
HETATM    5  C   LIG A   1      -3.080  -0.056  -0.822  1.00  0.00    -0.046 C
HETATM    6  C   LIG A   1      -3.557  -1.360  -0.754  1.00  0.00    -0.043 C
HETATM    7  C   LIG A   1      -2.673  -2.359  -0.387  1.00  0.00     0.027 C
HETATM    8  N   LIG A   1      -1.373  -2.140  -0.085  1.00  0.00    -0.258 NA
HETATM    9  C   LIG A   1      -0.905  -0.856  -0.149  1.00  0.00     0.082 C
HETATM   10  C   LIG A   1       0.549  -0.672   0.241  1.00  0.00     0.100 C
HETATM   11  C   LIG A   1       1.476  -0.593  -0.982  1.00  0.00    -0.021 C
HETATM   12  C   LIG A   1       2.717   0.253  -0.708  1.00  0.00    -0.048 C
HETATM   13  C   LIG A   1       3.139   0.119   0.745  1.00  0.00    -0.029 C
HETATM   14  C   LIG A   1       2.011   0.530   1.691  1.00  0.00     0.047 C
HETATM   15  O   LIG A   1       0.712   0.460   1.102  1.00  0.00    -0.372 OA
HETATM   16  H   LIG A   1      -2.287   2.161   1.059  1.00  0.00     0.159 H
HETATM   17  H   LIG A   1      -1.386   3.394   0.256  1.00  0.00     0.159 H
HETATM   18  H   LIG A   1      -3.740   0.751  -1.126  1.00  0.00     0.063 H
HETATM   19  H   LIG A   1      -4.589  -1.592  -0.990  1.00  0.00     0.064 H
HETATM   20  H   LIG A   1      -2.994  -3.395  -0.324  1.00  0.00     0.084 H
HETATM   21  H   LIG A   1       0.832  -1.556   0.831  1.00  0.00     0.067 H
HETATM   22  H   LIG A   1       1.771  -1.612  -1.262  1.00  0.00     0.030 H
HETATM   23  H   LIG A   1       0.967  -0.192  -1.866  1.00  0.00     0.030 H
HETATM   24  H   LIG A   1       2.499   1.306  -0.926  1.00  0.00     0.027 H
HETATM   25  H   LIG A   1       3.531  -0.048  -1.376  1.00  0.00     0.027 H
HETATM   26  H   LIG A   1       3.407  -0.927   0.943  1.00  0.00     0.029 H
HETATM   27  H   LIG A   1       4.038   0.709   0.954  1.00  0.00     0.029 H
HETATM   28  H   LIG A   1       2.025  -0.088   2.595  1.00  0.00     0.057 H
HETATM   29  H   LIG A   1       2.155   1.567   2.011  1.00  0.00     0.057 H
ENDROOT
TORSDOF 0
