REMARK  Name = C:\Users\adria\Documents\proteinFP\_tmp_98282a93\ligand.pdb
REMARK  5 active torsions:
REMARK  status: ('A' for Active; 'I' for Inactive)
REMARK    1  A    between atoms: _3  and  _4
REMARK    2  A    between atoms: _6  and  _7
REMARK    3  A    between atoms: _9  and  _10
REMARK    4  A    between atoms: _11  and  _12
REMARK    5  A    between atoms: _27  and  _28
REMARK                            x       y       z     vdW  Elec       q    Type
REMARK                         _______ _______ _______ _____ _____    ______ ____
ROOT
ATOM      1  C   UNL     1      -0.500   0.599   0.180  0.00  0.00    +0.065 A 
ATOM      2  C   UNL     1       0.625  -0.291   0.028  0.00  0.00    +0.076 A 
ATOM      3  C   UNL     1       1.869   0.319  -0.269  0.00  0.00    +0.071 A 
ATOM      4  N   UNL     1       3.115  -0.239  -0.467  0.00  0.00    -0.353 N 
ATOM      5  H   UNL     1       3.303  -1.227  -0.423  0.00  0.00    +0.166 HD
ATOM      6  C   UNL     1       4.069   0.711  -0.728  0.00  0.00    +0.048 A 
ATOM      7  C   UNL     1       3.424   1.942  -0.704  0.00  0.00    +0.007 A 
ATOM      8  C   UNL     1       4.185   3.105  -0.946  0.00  0.00    +0.010 A 
ATOM      9  C   UNL     1       5.556   2.989  -1.201  0.00  0.00    +0.001 A 
ATOM     10  C   UNL     1       6.172   1.740  -1.218  0.00  0.00    +0.002 A 
ATOM     11  C   UNL     1       5.439   0.573  -0.981  0.00  0.00    +0.026 A 
ATOM     12  C   UNL     1       2.044   1.695  -0.415  0.00  0.00    +0.010 A 
ATOM     13  C   UNL     1       0.932   2.539  -0.267  0.00  0.00    +0.024 A 
ATOM     14  C   UNL     1      -0.331   2.001   0.022  0.00  0.00    +0.041 A 
ENDROOT
BRANCH   2  15
ATOM     15  N   UNL     1       0.460  -1.685   0.195  0.00  0.00    -0.324 N 
ATOM     16  C   UNL     1       0.697  -2.476  -1.034  0.00  0.00    +0.120 C 
ATOM     17  C   UNL     1       0.280  -3.947  -0.789  0.00  0.00    +0.100 C 
ATOM     18  N   UNL     1       0.955  -4.565   0.375  0.00  0.00    -0.313 NA
ATOM     19  H   UNL     1       1.956  -4.594   0.186  0.00  0.00    +0.122 HD
ATOM     20  C   UNL     1       0.728  -3.721   1.568  0.00  0.00    +0.100 C 
ATOM     21  C   UNL     1       1.153  -2.245   1.373  0.00  0.00    +0.120 C 
ENDBRANCH   2  15
BRANCH   1  23
ATOM     22  C   UNL     1      -2.434  -0.848  -0.323  0.00  0.00    +0.163 C 
ATOM     23  N   UNL     1      -1.793   0.146   0.528  0.00  0.00    -0.307 N 
ATOM     24  C   UNL     1      -1.968  -0.209   1.942  0.00  0.00    +0.138 C 
ATOM     25  C   UNL     1      -3.248  -1.051   1.931  0.00  0.00    +0.135 C 
ATOM     26  C   UNL     1      -3.116  -1.836   0.634  0.00  0.00    +0.075 C 
BRANCH  22  29
ATOM     27  O   UNL     1      -4.037  -1.739  -2.486  0.00  0.00    -0.279 OA
ATOM     28  C   UNL     1      -4.025  -0.564  -2.147  0.00  0.00    +0.326 C 
ATOM     29  N   UNL     1      -3.361  -0.053  -1.070  0.00  0.00    -0.299 N 
ATOM     30  H   UNL     1      -3.156   0.939  -1.044  0.00  0.00    +0.150 HD
ENDBRANCH  22  29
BRANCH  25  31
ATOM     31  O   UNL     1      -4.407  -0.214   1.892  0.00  0.00    -0.390 OA
ATOM     32  H   UNL     1      -4.254   0.413   1.157  0.00  0.00    +0.210 HD
ENDBRANCH  25  31
ENDBRANCH   1  23
BRANCH  14  33
ATOM     33  C   UNL     1      -1.442   2.941   0.162  0.00  0.00    +0.137 A 
ATOM     34  O   UNL     1      -2.493   2.782  -0.701  0.00  0.00    -0.463 OA
ATOM     35  C   UNL     1      -3.388   3.766  -0.420  0.00  0.00    +0.196 A 
ATOM     36  C   UNL     1      -2.928   4.560   0.602  0.00  0.00    +0.042 A 
ATOM     37  C   UNL     1      -1.667   4.036   0.973  0.00  0.00    +0.050 A 
ENDBRANCH  14  33
TORSDOF 5
