REMARK  Name = C:\Users\adria\Documents\proteinFP\_tmp_f6f6c22c\ligand.pdb
REMARK  4 active torsions:
REMARK  status: ('A' for Active; 'I' for Inactive)
REMARK    1  A    between atoms: _1  and  _2
REMARK    2  A    between atoms: _2  and  _3
REMARK    3  A    between atoms: _7  and  _8
REMARK    4  A    between atoms: _12  and  _13
REMARK                            x       y       z     vdW  Elec       q    Type
REMARK                         _______ _______ _______ _____ _____    ______ ____
ROOT
ATOM      1  C   UNL     1       0.963  -0.840  -0.016  0.00  0.00    +0.029 A 
ATOM      2  C   UNL     1      -0.382  -0.607   0.216  0.00  0.00    +0.141 A 
ATOM      3  O   UNL     1      -1.024  -1.804   0.391  0.00  0.00    -0.465 OA
ATOM      4  C   UNL     1      -0.093  -2.784   0.276  0.00  0.00    +0.196 A 
ATOM      5  C   UNL     1       1.146  -2.245   0.030  0.00  0.00    +0.050 A 
ENDROOT
BRANCH   2   6
ATOM      6  C   UNL     1      -1.209   0.635   0.320  0.00  0.00    +0.184 C 
ATOM      7  O   UNL     1      -1.584   0.973  -1.023  0.00  0.00    -0.369 OA
ATOM      8  C   UNL     1      -2.750   1.783  -1.088  0.00  0.00    +0.161 C 
ATOM      9  C   UNL     1      -3.973   0.994  -0.639  0.00  0.00    +0.028 C 
ATOM     10  C   UNL     1      -3.669   0.059   0.531  0.00  0.00    +0.005 C 
ATOM     11  C   UNL     1      -2.410   0.492   1.271  0.00  0.00    +0.040 C 
ENDBRANCH   2   6
BRANCH   1  13
ATOM     12  C   UNL     1       3.339   0.093   0.144  0.00  0.00    +0.138 A 
ATOM     13  C   UNL     1       2.024   0.122  -0.278  0.00  0.00    +0.029 A 
ATOM     14  C   UNL     1       1.883   1.291  -1.067  0.00  0.00    +0.050 A 
ATOM     15  C   UNL     1       3.118   1.895  -1.083  0.00  0.00    +0.196 A 
ATOM     16  O   UNL     1       4.009   1.176  -0.354  0.00  0.00    -0.465 OA
BRANCH  12  17
ATOM     17  C   UNL     1       4.138  -0.827   0.983  0.00  0.00    +0.230 C 
BRANCH  17  18
ATOM     18  O   UNL     1       4.761  -1.768   0.117  0.00  0.00    -0.387 OA
ATOM     19  H   UNL     1       5.224  -1.243  -0.561  0.00  0.00    +0.210 HD
ENDBRANCH  17  18
ENDBRANCH  12  17
ENDBRANCH   1  13
TORSDOF 4
