ROOT
HETATM    1  N   LIG A   1       4.693   0.290   1.020  1.00  0.00    -0.366 NA
HETATM    2  C   LIG A   1       3.574   1.023   0.732  1.00  0.00     0.250 C
HETATM    3  O   LIG A   1       3.458   2.172   1.139  1.00  0.00    -0.269 OA
HETATM    4  C   LIG A   1       2.504   0.368  -0.050  1.00  0.00     0.058 C
HETATM    5  C   LIG A   1       2.756  -0.679  -0.920  1.00  0.00     0.040 C
HETATM    6  N   LIG A   1       1.799  -1.295  -1.655  1.00  0.00    -0.264 NA
HETATM    7  C   LIG A   1       0.532  -0.831  -1.522  1.00  0.00     0.032 C
HETATM    8  C   LIG A   1       0.155   0.213  -0.681  1.00  0.00    -0.011 C
HETATM    9  C   LIG A   1      -1.268   0.745  -0.569  1.00  0.00     0.046 C
HETATM   10  C   LIG A   1      -2.382  -0.044  -1.333  1.00  0.00     0.015 C
HETATM   11  N   LIG A   1      -2.773  -1.325  -0.709  1.00  0.00    -0.314 NA
HETATM   12  C   LIG A   1      -3.132  -1.089   0.700  1.00  0.00     0.008 C
HETATM   13  C   LIG A   1      -2.037  -0.333   1.479  1.00  0.00     0.008 C
HETATM   14  N   LIG A   1      -1.660   0.947   0.851  1.00  0.00    -0.308 NA
HETATM   15  C   LIG A   1       1.188   0.825   0.052  1.00  0.00    -0.042 C
HETATM   16  H   LIG A   1       5.343   0.726   1.663  1.00  0.00     0.159 H
HETATM   17  H   LIG A   1       4.707  -0.719   0.975  1.00  0.00     0.159 H
HETATM   18  H   LIG A   1       3.759  -1.060  -1.086  1.00  0.00     0.085 H
HETATM   19  H   LIG A   1      -0.179  -1.356  -2.153  1.00  0.00     0.084 H
HETATM   20  H   LIG A   1      -1.234   1.742  -1.029  1.00  0.00     0.053 H
HETATM   21  H   LIG A   1      -2.088  -0.227  -2.372  1.00  0.00     0.045 H
HETATM   22  H   LIG A   1      -3.280   0.587  -1.391  1.00  0.00     0.045 H
HETATM   23  H   LIG A   1      -1.967  -1.951  -0.717  1.00  0.00     0.122 H
HETATM   24  H   LIG A   1      -3.321  -2.054   1.182  1.00  0.00     0.044 H
HETATM   25  H   LIG A   1      -4.074  -0.527   0.742  1.00  0.00     0.044 H
HETATM   26  H   LIG A   1      -2.396  -0.128   2.494  1.00  0.00     0.044 H
HETATM   27  H   LIG A   1      -1.149  -0.968   1.587  1.00  0.00     0.044 H
HETATM   28  H   LIG A   1      -2.488   1.544   0.855  1.00  0.00     0.123 H
HETATM   29  H   LIG A   1       0.961   1.659   0.716  1.00  0.00     0.064 H
ENDROOT
TORSDOF 0
