REMARK  Name = C:\Users\adria\Documents\proteinFP\_tmp_99e113b3\ligand.pdb
REMARK  3 active torsions:
REMARK  status: ('A' for Active; 'I' for Inactive)
REMARK    1  A    between atoms: _2  and  _3
REMARK    2  A    between atoms: _7  and  _8
REMARK    3  A    between atoms: _8  and  _9
REMARK                            x       y       z     vdW  Elec       q    Type
REMARK                         _______ _______ _______ _____ _____    ______ ____
ROOT
ATOM      1  C   UNL     1      -0.600  -0.857  -0.732  0.00  0.00    +0.026 C 
ATOM      2  C   UNL     1      -0.675  -2.286  -0.139  0.00  0.00    +0.094 C 
ATOM      3  N   UNL     1      -1.743  -2.970  -0.883  0.00  0.00    -0.315 NA
ATOM      4  H   UNL     1      -2.633  -2.528  -0.630  0.00  0.00    +0.122 HD
ATOM      5  C   UNL     1      -1.483  -2.586  -2.271  0.00  0.00    +0.082 C 
ATOM      6  C   UNL     1      -0.975  -1.148  -2.219  0.00  0.00    +0.029 C 
ENDROOT
BRANCH   1   7
ATOM      7  C   UNL     1       0.789  -0.202  -0.639  0.00  0.00    -0.038 A 
ATOM      8  C   UNL     1       1.750  -0.614   0.303  0.00  0.00    +0.012 A 
ATOM      9  C   UNL     1       3.003   0.019   0.411  0.00  0.00    -0.018 A 
ATOM     10  C   UNL     1       3.958  -0.401   1.352  0.00  0.00    +0.008 A 
ATOM     11  C   UNL     1       5.196   0.236   1.448  0.00  0.00    +0.001 A 
ATOM     12  C   UNL     1       5.496   1.302   0.606  0.00  0.00    +0.001 A 
ATOM     13  C   UNL     1       4.558   1.733  -0.333  0.00  0.00    +0.008 A 
ATOM     14  C   UNL     1       3.309   1.101  -0.441  0.00  0.00    -0.018 A 
ATOM     15  C   UNL     1       2.354   1.524  -1.373  0.00  0.00    +0.009 A 
ATOM     16  C   UNL     1       1.113   0.887  -1.466  0.00  0.00    +0.005 A 
ENDBRANCH   1   7
BRANCH   1  19
ATOM     17  N   UNL     1      -2.460   1.096   2.144  0.00  0.00    -0.267 N 
ATOM     18  C   UNL     1      -1.275   0.566   1.372  0.00  0.00    +0.136 C 
ATOM     19  C   UNL     1      -1.663   0.125  -0.079  0.00  0.00    +0.083 C 
ATOM     20  N   UNL     1      -3.061  -0.402  -0.089  0.00  0.00    -0.309 NA
ATOM     21  H   UNL     1      -3.126  -1.039   0.712  0.00  0.00    +0.122 HD
ATOM     22  C   UNL     1      -4.000   0.700   0.224  0.00  0.00    +0.101 C 
ATOM     23  C   UNL     1      -3.475   1.729   1.247  0.00  0.00    +0.131 C 
BRANCH  17  25
ATOM     24  N   UNL     1      -2.274   1.705   4.560  0.00  0.00    -0.174 NA
ATOM     25  C   UNL     1      -2.360   1.421   3.442  0.00  0.00    +0.169 C 
ENDBRANCH  17  25
ENDBRANCH   1  19
TORSDOF 3
